 Entering Gaussian System, Link 0=/share/apps/gaussian/g09/g09
 Initial command:
 /share/apps/gaussian/g09/l1.exe "/home/data/acarney2/isoquinolines/Gau-27968.inp" -scrdir="/home/data/acarney2/isoquinolines/"
 Entering Link 1 = /share/apps/gaussian/g09/l1.exe PID=     27969.
  
 Copyright (c) 1988,1990,1992,1993,1995,1998,2003,2009,2013,
            Gaussian, Inc.  All Rights Reserved.
  
 This is part of the Gaussian(R) 09 program.  It is based on
 the Gaussian(R) 03 system (copyright 2003, Gaussian, Inc.),
 the Gaussian(R) 98 system (copyright 1998, Gaussian, Inc.),
 the Gaussian(R) 94 system (copyright 1995, Gaussian, Inc.),
 the Gaussian 92(TM) system (copyright 1992, Gaussian, Inc.),
 the Gaussian 90(TM) system (copyright 1990, Gaussian, Inc.),
 the Gaussian 88(TM) system (copyright 1988, Gaussian, Inc.),
 the Gaussian 86(TM) system (copyright 1986, Carnegie Mellon
 University), and the Gaussian 82(TM) system (copyright 1983,
 Carnegie Mellon University). Gaussian is a federally registered
 trademark of Gaussian, Inc.
  
 This software contains proprietary and confidential information,
 including trade secrets, belonging to Gaussian, Inc.
  
 This software is provided under written license and may be
 used, copied, transmitted, or stored only in accord with that
 written license.
  
 The following legend is applicable only to US Government
 contracts under FAR:
  
                    RESTRICTED RIGHTS LEGEND
  
 Use, reproduction and disclosure by the US Government is
 subject to restrictions as set forth in subparagraphs (a)
 and (c) of the Commercial Computer Software - Restricted
 Rights clause in FAR 52.227-19.
  
 Gaussian, Inc.
 340 Quinnipiac St., Bldg. 40, Wallingford CT 06492
  
  
 ---------------------------------------------------------------
 Warning -- This program may not be used in any manner that
 competes with the business of Gaussian, Inc. or will provide
 assistance to any competitor of Gaussian, Inc.  The licensee
 of this program is prohibited from giving any competitor of
 Gaussian, Inc. access to this program.  By using this program,
 the user acknowledges that Gaussian, Inc. is engaged in the
 business of creating and licensing software in the field of
 computational chemistry and represents and warrants to the
 licensee that it is not a competitor of Gaussian, Inc. and that
 it will not use this program in any manner prohibited above.
 ---------------------------------------------------------------
  

 Cite this work as:
 Gaussian 09, Revision D.01,
 M. J. Frisch, G. W. Trucks, H. B. Schlegel, G. E. Scuseria, 
 M. A. Robb, J. R. Cheeseman, G. Scalmani, V. Barone, B. Mennucci, 
 G. A. Petersson, H. Nakatsuji, M. Caricato, X. Li, H. P. Hratchian, 
 A. F. Izmaylov, J. Bloino, G. Zheng, J. L. Sonnenberg, M. Hada, 
 M. Ehara, K. Toyota, R. Fukuda, J. Hasegawa, M. Ishida, T. Nakajima, 
 Y. Honda, O. Kitao, H. Nakai, T. Vreven, J. A. Montgomery, Jr., 
 J. E. Peralta, F. Ogliaro, M. Bearpark, J. J. Heyd, E. Brothers, 
 K. N. Kudin, V. N. Staroverov, T. Keith, R. Kobayashi, J. Normand, 
 K. Raghavachari, A. Rendell, J. C. Burant, S. S. Iyengar, J. Tomasi, 
 M. Cossi, N. Rega, J. M. Millam, M. Klene, J. E. Knox, J. B. Cross, 
 V. Bakken, C. Adamo, J. Jaramillo, R. Gomperts, R. E. Stratmann, 
 O. Yazyev, A. J. Austin, R. Cammi, C. Pomelli, J. W. Ochterski, 
 R. L. Martin, K. Morokuma, V. G. Zakrzewski, G. A. Voth, 
 P. Salvador, J. J. Dannenberg, S. Dapprich, A. D. Daniels, 
 O. Farkas, J. B. Foresman, J. V. Ortiz, J. Cioslowski, 
 and D. J. Fox, Gaussian, Inc., Wallingford CT, 2013.
 
 ******************************************
 Gaussian 09:  ES64L-G09RevD.01 24-Apr-2013
                28-Jun-2023 
 ******************************************
 %chk=1-butylnaptho[2-3-g]isoquinoline.chk
 %nprocshared=12
 Will use up to   12 processors via shared memory.
 %mem=1GB
 ----------------------------------------
 #P b3lyp/6-31G** symmetry=loose opt freq
 ----------------------------------------
 1/14=-1,18=20,19=15,26=3,38=1/1,3;
 2/9=110,12=2,17=4,18=3,40=1/2;
 3/5=1,6=6,7=101,11=2,16=1,25=1,30=1,71=1,74=-5/1,2,3;
 4//1;
 5/5=2,38=5/2;
 6/7=2,8=2,9=2,10=2,28=1/1;
 7//1,2,3,16;
 1/14=-1,18=20,19=15,26=3/3(2);
 2/9=110/2;
 99//99;
 2/9=110/2;
 3/5=1,6=6,7=101,11=2,16=1,25=1,30=1,71=1,74=-5/1,2,3;
 4/5=5,16=3,69=1/1;
 5/5=2,38=5/2;
 7//1,2,3,16;
 1/14=-1,18=20,19=15,26=3/3(-5);
 2/9=110/2;
 6/7=2,8=2,9=2,10=2,19=2,28=1/1;
 99/9=1/99;
 Leave Link    1 at Wed Jun 28 11:36:39 2023, MaxMem=   134217728 cpu:         0.4
 (Enter /share/apps/gaussian/g09/l101.exe)
 ---------------------------------
 1-butylnapthoo[2-3-g]isoquinoline
 ---------------------------------
 Symbolic Z-matrix:
 Charge =  0 Multiplicity = 1
 C                    -3.03623  -3.17121   0.24921 
 C                    -1.6794   -3.1465    0.25095 
 C                    -1.00141  -1.93323   0.08633 
 C                    -1.73074  -0.75181  -0.07924 
 C                    -3.12958  -0.7978   -0.0782 
 C                    -3.76945  -1.98367   0.08279 
 C                     0.39965  -1.89906   0.08693 
 C                    -1.06259   0.46939  -0.24499 
 C                     0.33835   0.50206  -0.24419 
 C                     1.06444  -0.67711  -0.07895 
 C                     2.45847  -0.61646  -0.08203 
 H                     3.03844  -1.50692   0.04288 
 C                     3.09138   0.6229   -0.25042 
 C                     1.02203   1.7142   -0.40864 
 H                     0.95913  -2.80231   0.21351 
 H                    -1.12792  -4.05457   0.37817 
 H                    -3.69452   0.10211  -0.20435 
 H                    -1.6205    1.37359  -0.37171 
 H                     4.15998   0.6775   -0.2539 
 H                     0.47083   2.62243  -0.53588 
 C                    -3.70839  -4.38999   0.4146 
 C                    -5.17056  -2.02184   0.08274 
 C                    -5.83994  -3.2416    0.24828 
 C                    -5.10911  -4.42525   0.41415 
 H                    -3.15115  -5.2946    0.54137 
 H                    -5.62074  -5.35647   0.54052 
 H                    -5.72969  -1.11839  -0.04387 
 N                     2.36554   1.74311  -0.40754 
 C                    -7.37943  -3.28107   0.24787 
 C                    -7.85801  -4.63853  -0.29972 
 H                    -7.75623  -2.49387  -0.3712 
 H                    -7.73977  -3.1525    1.24714 
 C                    -9.3975   -4.67796  -0.30013 
 H                    -7.49766  -4.7671   -1.29898 
 H                    -7.48122  -5.42573   0.31936 
 C                    -9.8761   -6.03542  -0.84772 
 H                    -9.75785  -4.54939   0.69914 
 H                    -9.77428  -3.89076  -0.9192 
 H                    -10.94575  -6.06281  -0.848 
 H                    -9.51576  -6.16399  -1.84699 
 H                    -9.49932  -6.82262  -0.22866 
 
 NAtoms=     41 NQM=       41 NQMF=       0 NMMI=      0 NMMIF=      0
                NMic=       0 NMicF=      0.
                    Isotopes and Nuclear Properties:
 (Nuclear quadrupole moments (NQMom) in fm**2, nuclear magnetic moments (NMagM)
  in nuclear magnetons)

  Atom         1           2           3           4           5           6           7           8           9          10
 IAtWgt=          12          12          12          12          12          12          12          12          12          12
 AtmWgt=  12.0000000  12.0000000  12.0000000  12.0000000  12.0000000  12.0000000  12.0000000  12.0000000  12.0000000  12.0000000
 NucSpn=           0           0           0           0           0           0           0           0           0           0
 AtZEff=   0.0000000   0.0000000   0.0000000   0.0000000   0.0000000   0.0000000   0.0000000   0.0000000   0.0000000   0.0000000
 NQMom=    0.0000000   0.0000000   0.0000000   0.0000000   0.0000000   0.0000000   0.0000000   0.0000000   0.0000000   0.0000000
 NMagM=    0.0000000   0.0000000   0.0000000   0.0000000   0.0000000   0.0000000   0.0000000   0.0000000   0.0000000   0.0000000
 AtZNuc=   6.0000000   6.0000000   6.0000000   6.0000000   6.0000000   6.0000000   6.0000000   6.0000000   6.0000000   6.0000000

  Atom        11          12          13          14          15          16          17          18          19          20
 IAtWgt=          12           1          12          12           1           1           1           1           1           1
 AtmWgt=  12.0000000   1.0078250  12.0000000  12.0000000   1.0078250   1.0078250   1.0078250   1.0078250   1.0078250   1.0078250
 NucSpn=           0           1           0           0           1           1           1           1           1           1
 AtZEff=   0.0000000   0.0000000   0.0000000   0.0000000   0.0000000   0.0000000   0.0000000   0.0000000   0.0000000   0.0000000
 NQMom=    0.0000000   0.0000000   0.0000000   0.0000000   0.0000000   0.0000000   0.0000000   0.0000000   0.0000000   0.0000000
 NMagM=    0.0000000   2.7928460   0.0000000   0.0000000   2.7928460   2.7928460   2.7928460   2.7928460   2.7928460   2.7928460
 AtZNuc=   6.0000000   1.0000000   6.0000000   6.0000000   1.0000000   1.0000000   1.0000000   1.0000000   1.0000000   1.0000000

  Atom        21          22          23          24          25          26          27          28          29          30
 IAtWgt=          12          12          12          12           1           1           1          14          12          12
 AtmWgt=  12.0000000  12.0000000  12.0000000  12.0000000   1.0078250   1.0078250   1.0078250  14.0030740  12.0000000  12.0000000
 NucSpn=           0           0           0           0           1           1           1           2           0           0
 AtZEff=   0.0000000   0.0000000   0.0000000   0.0000000   0.0000000   0.0000000   0.0000000   0.0000000   0.0000000   0.0000000
 NQMom=    0.0000000   0.0000000   0.0000000   0.0000000   0.0000000   0.0000000   0.0000000   2.0440000   0.0000000   0.0000000
 NMagM=    0.0000000   0.0000000   0.0000000   0.0000000   2.7928460   2.7928460   2.7928460   0.4037610   0.0000000   0.0000000
 AtZNuc=   6.0000000   6.0000000   6.0000000   6.0000000   1.0000000   1.0000000   1.0000000   7.0000000   6.0000000   6.0000000

  Atom        31          32          33          34          35          36          37          38          39          40
 IAtWgt=           1           1          12           1           1          12           1           1           1           1
 AtmWgt=   1.0078250   1.0078250  12.0000000   1.0078250   1.0078250  12.0000000   1.0078250   1.0078250   1.0078250   1.0078250
 NucSpn=           1           1           0           1           1           0           1           1           1           1
 AtZEff=   0.0000000   0.0000000   0.0000000   0.0000000   0.0000000   0.0000000   0.0000000   0.0000000   0.0000000   0.0000000
 NQMom=    0.0000000   0.0000000   0.0000000   0.0000000   0.0000000   0.0000000   0.0000000   0.0000000   0.0000000   0.0000000
 NMagM=    2.7928460   2.7928460   0.0000000   2.7928460   2.7928460   0.0000000   2.7928460   2.7928460   2.7928460   2.7928460
 AtZNuc=   1.0000000   1.0000000   6.0000000   1.0000000   1.0000000   6.0000000   1.0000000   1.0000000   1.0000000   1.0000000

  Atom        41
 IAtWgt=           1
 AtmWgt=   1.0078250
 NucSpn=           1
 AtZEff=   0.0000000
 NQMom=    0.0000000
 NMagM=    2.7928460
 AtZNuc=   1.0000000
 Leave Link  101 at Wed Jun 28 11:36:40 2023, MaxMem=   134217728 cpu:         0.8
 (Enter /share/apps/gaussian/g09/l103.exe)

 GradGradGradGradGradGradGradGradGradGradGradGradGradGradGradGradGradGrad
 Berny optimization.
 Initialization pass.
                           ----------------------------
                           !    Initial Parameters    !
                           ! (Angstroms and Degrees)  !
 --------------------------                            --------------------------
 ! Name  Definition              Value          Derivative Info.                !
 --------------------------------------------------------------------------------
 ! R1    R(1,2)                  1.3571         estimate D2E/DX2                !
 ! R2    R(1,6)                  1.4055         estimate D2E/DX2                !
 ! R3    R(1,21)                 1.4016         estimate D2E/DX2                !
 ! R4    R(2,3)                  1.3996         estimate D2E/DX2                !
 ! R5    R(2,16)                 1.07           estimate D2E/DX2                !
 ! R6    R(3,4)                  1.3982         estimate D2E/DX2                !
 ! R7    R(3,7)                  1.4015         estimate D2E/DX2                !
 ! R8    R(4,5)                  1.3996         estimate D2E/DX2                !
 ! R9    R(4,8)                  1.4019         estimate D2E/DX2                !
 ! R10   R(5,6)                  1.3571         estimate D2E/DX2                !
 ! R11   R(5,17)                 1.07           estimate D2E/DX2                !
 ! R12   R(6,22)                 1.4016         estimate D2E/DX2                !
 ! R13   R(7,10)                 1.4009         estimate D2E/DX2                !
 ! R14   R(7,15)                 1.07           estimate D2E/DX2                !
 ! R15   R(8,9)                  1.4013         estimate D2E/DX2                !
 ! R16   R(8,18)                 1.07           estimate D2E/DX2                !
 ! R17   R(9,10)                 1.3946         estimate D2E/DX2                !
 ! R18   R(9,14)                 1.4013         estimate D2E/DX2                !
 ! R19   R(10,11)                1.3954         estimate D2E/DX2                !
 ! R20   R(11,12)                1.07           estimate D2E/DX2                !
 ! R21   R(11,13)                1.4018         estimate D2E/DX2                !
 ! R22   R(13,19)                1.07           estimate D2E/DX2                !
 ! R23   R(13,28)                1.344          estimate D2E/DX2                !
 ! R24   R(14,20)                1.07           estimate D2E/DX2                !
 ! R25   R(14,28)                1.3438         estimate D2E/DX2                !
 ! R26   R(21,24)                1.4012         estimate D2E/DX2                !
 ! R27   R(21,25)                1.07           estimate D2E/DX2                !
 ! R28   R(22,23)                1.4012         estimate D2E/DX2                !
 ! R29   R(22,27)                1.07           estimate D2E/DX2                !
 ! R30   R(23,24)                1.4009         estimate D2E/DX2                !
 ! R31   R(23,29)                1.54           estimate D2E/DX2                !
 ! R32   R(24,26)                1.07           estimate D2E/DX2                !
 ! R33   R(29,30)                1.54           estimate D2E/DX2                !
 ! R34   R(29,31)                1.07           estimate D2E/DX2                !
 ! R35   R(29,32)                1.07           estimate D2E/DX2                !
 ! R36   R(30,33)                1.54           estimate D2E/DX2                !
 ! R37   R(30,34)                1.07           estimate D2E/DX2                !
 ! R38   R(30,35)                1.07           estimate D2E/DX2                !
 ! R39   R(33,36)                1.54           estimate D2E/DX2                !
 ! R40   R(33,37)                1.07           estimate D2E/DX2                !
 ! R41   R(33,38)                1.07           estimate D2E/DX2                !
 ! R42   R(36,39)                1.07           estimate D2E/DX2                !
 ! R43   R(36,40)                1.07           estimate D2E/DX2                !
 ! R44   R(36,41)                1.07           estimate D2E/DX2                !
 ! A1    A(2,1,6)              120.4207         estimate D2E/DX2                !
 ! A2    A(2,1,21)             119.68           estimate D2E/DX2                !
 ! A3    A(6,1,21)             119.8993         estimate D2E/DX2                !
 ! A4    A(1,2,3)              119.9987         estimate D2E/DX2                !
 ! A5    A(1,2,16)             120.0006         estimate D2E/DX2                !
 ! A6    A(3,2,16)             120.0006         estimate D2E/DX2                !
 ! A7    A(2,3,4)              119.5846         estimate D2E/DX2                !
 ! A8    A(2,3,7)              120.356          estimate D2E/DX2                !
 ! A9    A(4,3,7)              120.0594         estimate D2E/DX2                !
 ! A10   A(3,4,5)              119.5689         estimate D2E/DX2                !
 ! A11   A(3,4,8)              120.0952         estimate D2E/DX2                !
 ! A12   A(5,4,8)              120.3359         estimate D2E/DX2                !
 ! A13   A(4,5,6)              120.0037         estimate D2E/DX2                !
 ! A14   A(4,5,17)             119.9981         estimate D2E/DX2                !
 ! A15   A(6,5,17)             119.9981         estimate D2E/DX2                !
 ! A16   A(1,6,5)              120.4233         estimate D2E/DX2                !
 ! A17   A(1,6,22)             119.8986         estimate D2E/DX2                !
 ! A18   A(5,6,22)             119.6781         estimate D2E/DX2                !
 ! A19   A(3,7,10)             119.71           estimate D2E/DX2                !
 ! A20   A(3,7,15)             120.145          estimate D2E/DX2                !
 ! A21   A(10,7,15)            120.145          estimate D2E/DX2                !
 ! A22   A(4,8,9)              119.7835         estimate D2E/DX2                !
 ! A23   A(4,8,18)             120.1083         estimate D2E/DX2                !
 ! A24   A(9,8,18)             120.1083         estimate D2E/DX2                !
 ! A25   A(8,9,10)             120.0563         estimate D2E/DX2                !
 ! A26   A(8,9,14)             120.52           estimate D2E/DX2                !
 ! A27   A(10,9,14)            119.4237         estimate D2E/DX2                !
 ! A28   A(7,10,9)             120.2957         estimate D2E/DX2                !
 ! A29   A(7,10,11)            120.8143         estimate D2E/DX2                !
 ! A30   A(9,10,11)            118.89           estimate D2E/DX2                !
 ! A31   A(10,11,12)           120.337          estimate D2E/DX2                !
 ! A32   A(10,11,13)           119.3261         estimate D2E/DX2                !
 ! A33   A(12,11,13)           120.3369         estimate D2E/DX2                !
 ! A34   A(11,13,19)           119.764          estimate D2E/DX2                !
 ! A35   A(11,13,28)           120.472          estimate D2E/DX2                !
 ! A36   A(19,13,28)           119.764          estimate D2E/DX2                !
 ! A37   A(9,14,20)            119.7919         estimate D2E/DX2                !
 ! A38   A(9,14,28)            120.416          estimate D2E/DX2                !
 ! A39   A(20,14,28)           119.792          estimate D2E/DX2                !
 ! A40   A(1,21,24)            120.0824         estimate D2E/DX2                !
 ! A41   A(1,21,25)            119.9588         estimate D2E/DX2                !
 ! A42   A(24,21,25)           119.9588         estimate D2E/DX2                !
 ! A43   A(6,22,23)            120.0829         estimate D2E/DX2                !
 ! A44   A(6,22,27)            119.9585         estimate D2E/DX2                !
 ! A45   A(23,22,27)           119.9586         estimate D2E/DX2                !
 ! A46   A(22,23,24)           120.0185         estimate D2E/DX2                !
 ! A47   A(22,23,29)           119.99           estimate D2E/DX2                !
 ! A48   A(24,23,29)           119.9915         estimate D2E/DX2                !
 ! A49   A(21,24,23)           120.0183         estimate D2E/DX2                !
 ! A50   A(21,24,26)           119.9908         estimate D2E/DX2                !
 ! A51   A(23,24,26)           119.9908         estimate D2E/DX2                !
 ! A52   A(13,28,14)           121.4723         estimate D2E/DX2                !
 ! A53   A(23,29,30)           109.4719         estimate D2E/DX2                !
 ! A54   A(23,29,31)           109.4709         estimate D2E/DX2                !
 ! A55   A(23,29,32)           109.4712         estimate D2E/DX2                !
 ! A56   A(30,29,31)           109.471          estimate D2E/DX2                !
 ! A57   A(30,29,32)           109.4711         estimate D2E/DX2                !
 ! A58   A(31,29,32)           109.4713         estimate D2E/DX2                !
 ! A59   A(29,30,33)           109.4707         estimate D2E/DX2                !
 ! A60   A(29,30,34)           109.4713         estimate D2E/DX2                !
 ! A61   A(29,30,35)           109.4715         estimate D2E/DX2                !
 ! A62   A(33,30,34)           109.4714         estimate D2E/DX2                !
 ! A63   A(33,30,35)           109.4713         estimate D2E/DX2                !
 ! A64   A(34,30,35)           109.4711         estimate D2E/DX2                !
 ! A65   A(30,33,36)           109.4715         estimate D2E/DX2                !
 ! A66   A(30,33,37)           109.4713         estimate D2E/DX2                !
 ! A67   A(30,33,38)           109.471          estimate D2E/DX2                !
 ! A68   A(36,33,37)           109.4711         estimate D2E/DX2                !
 ! A69   A(36,33,38)           109.4712         estimate D2E/DX2                !
 ! A70   A(37,33,38)           109.4712         estimate D2E/DX2                !
 ! A71   A(33,36,39)           109.471          estimate D2E/DX2                !
 ! A72   A(33,36,40)           109.4712         estimate D2E/DX2                !
 ! A73   A(33,36,41)           109.4714         estimate D2E/DX2                !
 ! A74   A(39,36,40)           109.4714         estimate D2E/DX2                !
 ! A75   A(39,36,41)           109.4712         estimate D2E/DX2                !
 ! A76   A(40,36,41)           109.4712         estimate D2E/DX2                !
 ! D1    D(6,1,2,3)             -0.0002         estimate D2E/DX2                !
 ! D2    D(6,1,2,16)          -180.0            estimate D2E/DX2                !
 ! D3    D(21,1,2,3)           179.9996         estimate D2E/DX2                !
 ! D4    D(21,1,2,16)           -0.0002         estimate D2E/DX2                !
 ! D5    D(2,1,6,5)              0.0002         estimate D2E/DX2                !
 ! D6    D(2,1,6,22)           180.0            estimate D2E/DX2                !
 ! D7    D(21,1,6,5)          -179.9996         estimate D2E/DX2                !
 ! D8    D(21,1,6,22)            0.0002         estimate D2E/DX2                !
 ! D9    D(2,1,21,24)         -179.9998         estimate D2E/DX2                !
 ! D10   D(2,1,21,25)            0.0001         estimate D2E/DX2                !
 ! D11   D(6,1,21,24)            0.0            estimate D2E/DX2                !
 ! D12   D(6,1,21,25)          179.9999         estimate D2E/DX2                !
 ! D13   D(1,2,3,4)              0.0001         estimate D2E/DX2                !
 ! D14   D(1,2,3,7)           -179.9998         estimate D2E/DX2                !
 ! D15   D(16,2,3,4)           179.9998         estimate D2E/DX2                !
 ! D16   D(16,2,3,7)             0.0            estimate D2E/DX2                !
 ! D17   D(2,3,4,5)              0.0            estimate D2E/DX2                !
 ! D18   D(2,3,4,8)           -179.9997         estimate D2E/DX2                !
 ! D19   D(7,3,4,5)            179.9999         estimate D2E/DX2                !
 ! D20   D(7,3,4,8)              0.0001         estimate D2E/DX2                !
 ! D21   D(2,3,7,10)           179.9997         estimate D2E/DX2                !
 ! D22   D(2,3,7,15)            -0.0002         estimate D2E/DX2                !
 ! D23   D(4,3,7,10)            -0.0001         estimate D2E/DX2                !
 ! D24   D(4,3,7,15)          -180.0            estimate D2E/DX2                !
 ! D25   D(3,4,5,6)              0.0            estimate D2E/DX2                !
 ! D26   D(3,4,5,17)           180.0            estimate D2E/DX2                !
 ! D27   D(8,4,5,6)            179.9997         estimate D2E/DX2                !
 ! D28   D(8,4,5,17)            -0.0002         estimate D2E/DX2                !
 ! D29   D(3,4,8,9)              0.0            estimate D2E/DX2                !
 ! D30   D(3,4,8,18)           179.9998         estimate D2E/DX2                !
 ! D31   D(5,4,8,9)           -179.9998         estimate D2E/DX2                !
 ! D32   D(5,4,8,18)             0.0            estimate D2E/DX2                !
 ! D33   D(4,5,6,1)             -0.0001         estimate D2E/DX2                !
 ! D34   D(4,5,6,22)          -179.9999         estimate D2E/DX2                !
 ! D35   D(17,5,6,1)           179.9999         estimate D2E/DX2                !
 ! D36   D(17,5,6,22)            0.0001         estimate D2E/DX2                !
 ! D37   D(1,6,22,23)           -0.0002         estimate D2E/DX2                !
 ! D38   D(1,6,22,27)          179.9999         estimate D2E/DX2                !
 ! D39   D(5,6,22,23)          179.9996         estimate D2E/DX2                !
 ! D40   D(5,6,22,27)           -0.0003         estimate D2E/DX2                !
 ! D41   D(3,7,10,9)             0.0001         estimate D2E/DX2                !
 ! D42   D(3,7,10,11)         -179.9999         estimate D2E/DX2                !
 ! D43   D(15,7,10,9)          180.0            estimate D2E/DX2                !
 ! D44   D(15,7,10,11)          -0.0001         estimate D2E/DX2                !
 ! D45   D(4,8,9,10)             0.0            estimate D2E/DX2                !
 ! D46   D(4,8,9,14)           180.0            estimate D2E/DX2                !
 ! D47   D(18,8,9,10)         -179.9998         estimate D2E/DX2                !
 ! D48   D(18,8,9,14)            0.0001         estimate D2E/DX2                !
 ! D49   D(8,9,10,7)             0.0            estimate D2E/DX2                !
 ! D50   D(8,9,10,11)          180.0            estimate D2E/DX2                !
 ! D51   D(14,9,10,7)          180.0            estimate D2E/DX2                !
 ! D52   D(14,9,10,11)           0.0            estimate D2E/DX2                !
 ! D53   D(8,9,14,20)            0.0            estimate D2E/DX2                !
 ! D54   D(8,9,14,28)         -180.0            estimate D2E/DX2                !
 ! D55   D(10,9,14,20)         180.0            estimate D2E/DX2                !
 ! D56   D(10,9,14,28)           0.0            estimate D2E/DX2                !
 ! D57   D(7,10,11,12)           0.0001         estimate D2E/DX2                !
 ! D58   D(7,10,11,13)         179.9999         estimate D2E/DX2                !
 ! D59   D(9,10,11,12)        -179.9999         estimate D2E/DX2                !
 ! D60   D(9,10,11,13)          -0.0001         estimate D2E/DX2                !
 ! D61   D(10,11,13,19)       -179.9999         estimate D2E/DX2                !
 ! D62   D(10,11,13,28)          0.0001         estimate D2E/DX2                !
 ! D63   D(12,11,13,19)         -0.0001         estimate D2E/DX2                !
 ! D64   D(12,11,13,28)        180.0            estimate D2E/DX2                !
 ! D65   D(11,13,28,14)         -0.0001         estimate D2E/DX2                !
 ! D66   D(19,13,28,14)        180.0            estimate D2E/DX2                !
 ! D67   D(9,14,28,13)           0.0            estimate D2E/DX2                !
 ! D68   D(20,14,28,13)       -179.9999         estimate D2E/DX2                !
 ! D69   D(1,21,24,23)          -0.0001         estimate D2E/DX2                !
 ! D70   D(1,21,24,26)         179.9996         estimate D2E/DX2                !
 ! D71   D(25,21,24,23)        179.9999         estimate D2E/DX2                !
 ! D72   D(25,21,24,26)         -0.0003         estimate D2E/DX2                !
 ! D73   D(6,22,23,24)           0.0            estimate D2E/DX2                !
 ! D74   D(6,22,23,29)        -179.9998         estimate D2E/DX2                !
 ! D75   D(27,22,23,24)        180.0            estimate D2E/DX2                !
 ! D76   D(27,22,23,29)          0.0001         estimate D2E/DX2                !
 ! D77   D(22,23,24,21)          0.0001         estimate D2E/DX2                !
 ! D78   D(22,23,24,26)       -179.9996         estimate D2E/DX2                !
 ! D79   D(29,23,24,21)        180.0            estimate D2E/DX2                !
 ! D80   D(29,23,24,26)          0.0002         estimate D2E/DX2                !
 ! D81   D(22,23,29,30)        149.9997         estimate D2E/DX2                !
 ! D82   D(22,23,29,31)         29.9998         estimate D2E/DX2                !
 ! D83   D(22,23,29,32)        -90.0001         estimate D2E/DX2                !
 ! D84   D(24,23,29,30)        -30.0001         estimate D2E/DX2                !
 ! D85   D(24,23,29,31)       -150.0            estimate D2E/DX2                !
 ! D86   D(24,23,29,32)         90.0001         estimate D2E/DX2                !
 ! D87   D(23,29,30,33)       -179.9993         estimate D2E/DX2                !
 ! D88   D(23,29,30,34)        -59.9993         estimate D2E/DX2                !
 ! D89   D(23,29,30,35)         60.0007         estimate D2E/DX2                !
 ! D90   D(31,29,30,33)        -59.9995         estimate D2E/DX2                !
 ! D91   D(31,29,30,34)         60.0005         estimate D2E/DX2                !
 ! D92   D(31,29,30,35)       -179.9994         estimate D2E/DX2                !
 ! D93   D(32,29,30,33)         60.0004         estimate D2E/DX2                !
 ! D94   D(32,29,30,34)       -179.9996         estimate D2E/DX2                !
 ! D95   D(32,29,30,35)        -59.9996         estimate D2E/DX2                !
 ! D96   D(29,30,33,36)        179.9996         estimate D2E/DX2                !
 ! D97   D(29,30,33,37)        -60.0003         estimate D2E/DX2                !
 ! D98   D(29,30,33,38)         59.9997         estimate D2E/DX2                !
 ! D99   D(34,30,33,36)         59.9997         estimate D2E/DX2                !
 ! D100  D(34,30,33,37)        179.9999         estimate D2E/DX2                !
 ! D101  D(34,30,33,38)        -60.0002         estimate D2E/DX2                !
 ! D102  D(35,30,33,36)        -60.0003         estimate D2E/DX2                !
 ! D103  D(35,30,33,37)         59.9998         estimate D2E/DX2                !
 ! D104  D(35,30,33,38)        179.9997         estimate D2E/DX2                !
 ! D105  D(30,33,36,39)        180.0            estimate D2E/DX2                !
 ! D106  D(30,33,36,40)        -60.0            estimate D2E/DX2                !
 ! D107  D(30,33,36,41)         60.0001         estimate D2E/DX2                !
 ! D108  D(37,33,36,39)         59.9998         estimate D2E/DX2                !
 ! D109  D(37,33,36,40)        179.9998         estimate D2E/DX2                !
 ! D110  D(37,33,36,41)        -60.0002         estimate D2E/DX2                !
 ! D111  D(38,33,36,39)        -60.0001         estimate D2E/DX2                !
 ! D112  D(38,33,36,40)         59.9999         estimate D2E/DX2                !
 ! D113  D(38,33,36,41)        179.9999         estimate D2E/DX2                !
 --------------------------------------------------------------------------------
 Trust Radius=3.00D-01 FncErr=1.00D-07 GrdErr=1.00D-06
 Number of steps in this run=    243 maximum allowed number of steps=    246.
 GradGradGradGradGradGradGradGradGradGradGradGradGradGradGradGradGradGrad

 Leave Link  103 at Wed Jun 28 11:36:40 2023, MaxMem=   134217728 cpu:         0.1
 (Enter /share/apps/gaussian/g09/l202.exe)
                          Input orientation:                          
 ---------------------------------------------------------------------
 Center     Atomic      Atomic             Coordinates (Angstroms)
 Number     Number       Type             X           Y           Z
 ---------------------------------------------------------------------
      1          6           0       -3.036228   -3.171212    0.249211
      2          6           0       -1.679398   -3.146503    0.250950
      3          6           0       -1.001407   -1.933232    0.086329
      4          6           0       -1.730740   -0.751808   -0.079237
      5          6           0       -3.129576   -0.797798   -0.078200
      6          6           0       -3.769450   -1.983675    0.082791
      7          6           0        0.399648   -1.899059    0.086926
      8          6           0       -1.062593    0.469392   -0.244993
      9          6           0        0.338354    0.502059   -0.244190
     10          6           0        1.064439   -0.677109   -0.078947
     11          6           0        2.458473   -0.616458   -0.082026
     12          1           0        3.038445   -1.506925    0.042878
     13          6           0        3.091383    0.622895   -0.250419
     14          6           0        1.022028    1.714199   -0.408639
     15          1           0        0.959129   -2.802307    0.213515
     16          1           0       -1.127925   -4.054573    0.378170
     17          1           0       -3.694516    0.102107   -0.204349
     18          1           0       -1.620500    1.373594   -0.371710
     19          1           0        4.159984    0.677498   -0.253899
     20          1           0        0.470831    2.622434   -0.535884
     21          6           0       -3.708386   -4.389990    0.414604
     22          6           0       -5.170558   -2.021845    0.082739
     23          6           0       -5.839935   -3.241601    0.248277
     24          6           0       -5.109114   -4.425249    0.414149
     25          1           0       -3.151153   -5.294602    0.541370
     26          1           0       -5.620736   -5.356470    0.540521
     27          1           0       -5.729694   -1.118387   -0.043874
     28          7           0        2.365543    1.743113   -0.407537
     29          6           0       -7.379431   -3.281067    0.247875
     30          6           0       -7.858007   -4.638531   -0.299718
     31          1           0       -7.756227   -2.493873   -0.371198
     32          1           0       -7.739772   -3.152500    1.247137
     33          6           0       -9.397503   -4.677963   -0.300125
     34          1           0       -7.497662   -4.767104   -1.298979
     35          1           0       -7.481223   -5.425729    0.319356
     36          6           0       -9.876097   -6.035417   -0.847723
     37          1           0       -9.757847   -4.549392    0.699137
     38          1           0       -9.774283   -3.890761   -0.919196
     39          1           0      -10.945747   -6.062807   -0.848003
     40          1           0       -9.515757   -6.163987   -1.846986
     41          1           0       -9.499319   -6.822622   -0.228655
 ---------------------------------------------------------------------
                    Distance matrix (angstroms):
                    1          2          3          4          5
     1  C    0.000000
     2  C    1.357056   0.000000
     3  C    2.387388   1.399571   0.000000
     4  C    2.768699   2.417896   1.398249   0.000000
     5  C    2.397708   2.779886   2.417722   1.399593   0.000000
     6  C    1.405545   2.397658   2.768505   2.387486   1.357077
     7  C    3.667418   2.430113   1.401472   2.425355   3.700739
     8  C    4.170548   3.701500   2.426132   1.401864   2.430229
     9  C    5.012402   4.198630   2.799079   2.424983   3.707253
    10  C    4.810790   3.706127   2.423402   2.796176   4.195751
    11  C    6.068626   4.861479   3.705807   4.191400   5.590993
    12  H    6.301910   4.998955   4.062515   4.830139   6.209832
    13  C    7.224438   6.100827   4.837160   5.017169   6.383445
    14  C    6.385097   5.599927   4.200362   3.710449   4.863656
    15  H    4.012510   2.661146   2.148294   3.394944   4.562966
    16  H    2.106793   1.070000   2.145056   3.388343   3.849865
    17  H    3.369522   3.849865   3.388205   2.145050   1.070000
    18  H    4.800530   4.563162   3.395316   2.148261   2.660527
    19  H    8.176255   6.998302   5.794102   6.064161   7.439426
    20  H    6.817784   6.206708   4.827911   4.054744   4.987023
    21  C    1.401631   2.385337   3.670308   4.170292   3.671746
    22  C    2.429841   3.671696   4.170094   3.670365   2.385330
    23  C    2.804591   4.161625   5.014919   4.815789   3.663987
    24  C    2.428306   3.663984   4.815690   5.015078   4.161655
    25  H    2.146474   2.620064   4.015879   4.799970   4.539336
    26  H    3.397042   4.527908   5.767413   6.059627   5.231651
    27  H    3.399228   4.539281   4.799752   4.015876   2.620032
    28  N    7.332192   6.379929   5.009567   4.807488   6.063088
    29  C    4.344593   5.701622   6.520885   6.197731   4.932972
    30  C    5.069901   6.380015   7.381100   7.259382   6.095765
    31  H    4.808543   6.143357   6.793470   6.279055   4.936437
    32  H    4.808278   6.141706   6.945477   6.605381   5.343692
    33  C    6.560327   7.887852   8.841794   8.616423   7.375082
    34  H    4.984792   6.235449   7.221581   7.132164   6.027094
    35  H    4.984551   6.233837   7.364771   7.421083   6.364952
    36  C    7.496049   8.760068   9.821431   9.739299   8.575568
    37  H    6.876189   8.211595   9.159425   8.914144   7.655891
    38  H    6.876359   8.212814   9.044686   8.675087   7.377385
    39  H    8.492685   9.776387  10.808157  10.663680   9.455445
    40  H    7.438753   8.655349   9.702121   9.644849   8.526892
    41  H    7.438595   8.654192   9.809172   9.860423   8.768966
                    6          7          8          9         10
     6  C    0.000000
     7  C    4.169958   0.000000
     8  C    3.667704   2.803190   0.000000
     9  C    4.812468   2.424616   1.401328   0.000000
    10  C    5.009965   1.400936   2.422044   1.394612   0.000000
    11  C    6.378360   2.431537   3.688297   2.402558   1.395357
    12  H    6.824684   2.668138   4.561492   3.377708   2.144793
    13  C    7.346854   3.703984   4.156815   2.755687   2.414109
    14  C    6.072400   3.699808   2.433510   1.401334   2.414302
    15  H    4.800698   1.070000   3.873190   3.393183   2.147810
    16  H    3.369499   2.657920   4.567150   4.827028   4.052489
    17  H    2.106787   4.566364   2.657738   4.052850   4.823956
    18  H    4.011958   3.873190   1.070000   2.147777   3.391164
    19  H    8.370849   4.571097   5.226728   3.825666   3.383485
    20  H    6.291183   4.564741   2.659248   2.144440   3.383511
    21  C    2.429852   4.815397   5.572152   6.382966   6.067036
    22  C    1.401628   5.571561   4.815501   6.068368   6.380411
    23  C    2.428307   6.384423   6.069414   7.240772   7.372521
    24  C    2.804600   6.069198   6.384850   7.374733   7.239091
    25  H    3.399239   4.934006   6.180944   6.811391   6.283092
    26  H    3.874600   6.957331   7.438707   8.393384   8.183625
    27  H    2.146468   6.180242   4.933895   6.283883   6.808538
    28  N    7.194964   4.168291   3.660724   2.382518   2.767367
    29  C    3.839589   7.902526   7.362833   8.609203   8.842304
    30  C    4.889874   8.708792   8.501266   9.675179   9.764816
    31  H    4.044848   8.190359   7.321312   8.632148   9.010559
    32  H    4.299455   8.316692   7.741400   8.990883   9.241222
    33  C    6.251464  10.190991   9.796379  11.028267  11.203034
    34  H    4.853486   8.515510   8.363127   9.501569   9.566927
    35  H    5.067638   8.637103   8.733255   9.828634   9.784496
    36  C    7.387396  11.116383  10.970583  12.142400  12.206466
    37  H    6.543981  10.515406  10.083998  11.328738  11.520497
    38  H    6.379574  10.415758   9.765194  11.046172  11.336289
    39  H    8.306921  12.121422  11.862124  13.068780  13.184906
    40  H    7.363362  10.965623  10.863889  12.004526  12.048748
    41  H    7.506251  11.060317  11.151327  12.265032  12.222222
                   11         12         13         14         15
    11  C    0.000000
    12  H    1.069999   0.000000
    13  C    1.401759   2.150572   0.000000
    14  C    2.757175   3.826937   2.344826   0.000000
    15  H    2.667079   2.455746   4.061251   4.559590   0.000000
    16  H    4.989455   4.895055   6.330592   6.206456   2.439482
    17  H    6.196013   6.926967   6.806010   4.988624   5.501512
    18  H    4.547774   5.493182   4.772851   2.664645   4.943189
    19  H    2.144528   2.473384   1.070000   3.308392   4.751104
    20  H    3.827157   4.896857   3.308616   1.070000   5.497986
    21  C    7.246815   7.346426   8.473968   7.766317   4.934254
    22  C    7.759148   8.225234   8.681321   7.248973   6.180557
    23  C    8.709998   9.048587   9.744305   8.489879   6.813329
    24  C    8.486545   8.662400   9.652646   8.715544   6.284725
    25  H    7.330863   7.273659   8.637880   8.212263   4.818033
    26  H    9.387699   9.489366  10.596198   9.747902   7.065784
    27  H    8.203625   8.777172   8.993672   7.330918   6.902332
    28  N    2.383730   3.349390   1.344030   1.343826   4.798390
    29  C   10.197712  10.569851  11.186026   9.796337   8.352363
    30  C   11.074937  11.342707  12.148012  10.918978   9.020920
    31  H   10.389822  10.847602  11.287138   9.734837   8.740391
    32  H   10.592563  10.969418  11.567637  10.158519   8.767091
    33  C   12.534256  12.838456  13.567382  12.224490  10.537634
    34  H   10.855112  11.110306  11.928095  10.741747   8.812796
    35  H   11.049333  11.229287  12.193872  11.127167   8.839292
    36  C   13.494185  13.714438  14.589224  13.379779  11.356996
    37  H   12.857553  13.169372  13.883693  12.516607  10.869301
    38  H   12.691029  13.068062  13.650850  12.175245  10.847759
    39  H   14.488704  14.734563  15.559459  14.279444  12.388856
    40  H   13.314366  13.522862  14.406623  13.235543  11.192399
    41  H   13.473187  13.620789  14.627440  13.550220  11.213277
                   16         17         18         19         20
    16  H    0.000000
    17  H    4.919828   0.000000
    18  H    5.501813   2.438489   0.000000
    19  H    7.124182   7.875703   5.823438   0.000000
    20  H    6.926322   4.879762   2.441357   4.179969   0.000000
    21  C    2.602424   4.534560   6.180328   9.382833   8.218477
    22  C    4.534551   2.602363   4.933400   9.718991   7.333301
    23  C    4.783392   3.998510   6.283951  10.752204   8.650294
    24  C    3.998570   4.783365   6.812824  10.601909   9.039258
    25  H    2.378605   5.475017   6.902278   9.473708   8.772611
    26  H    4.680454   5.836199   7.882119  11.519650  10.095977
    27  H    5.474997   2.378509   4.816940  10.053608   7.258259
    28  N    6.814309   6.281600   4.003295   2.092643   2.092752
    29  C    6.300526   5.022845   7.430682  12.209836   9.853538
    30  C    6.789297   6.310103   8.663562  13.141323  11.052010
    31  H    6.850673   4.823323   7.252892  12.331562   9.689593
    32  H    6.729440   5.391046   7.781496  12.590718  10.195246
    33  C    8.320735   7.441929   9.854351  14.576987  12.277435
    34  H    6.625261   6.274659   8.550381  12.908779  10.894240
    35  H    6.499841   6.720892   9.003134  13.156583  11.346344
    36  C    9.053015   8.734706  11.102923  15.570081  13.494983
    37  H    8.650053   7.695240  10.121506  14.897471  12.553335
    38  H    8.744684   7.308732   9.720974  14.679080  12.146234
    39  H   10.095848   9.539435  11.936798  16.551972  14.348139
    40  H    8.930660   8.709136  11.014837  15.374320  13.366081
    41  H    8.838019   9.035940  11.369881  15.582971  13.737080
                   21         22         23         24         25
    21  C    0.000000
    22  C    2.802891   0.000000
    23  C    2.426925   1.401169   0.000000
    24  C    1.401172   2.426924   1.400941   0.000000
    25  H    1.070000   3.872891   3.395624   2.146060   0.000000
    26  H    2.146397   3.395872   2.146188   1.070000   2.470358
    27  H    3.872890   1.070000   2.146054   3.395621   4.942890
    28  N    8.670840   8.438489   9.623271   9.725963   8.992430
    29  C    3.838500   2.547946   1.540002   2.547771   4.692419
    30  C    4.217984   3.770371   2.514821   2.848071   4.826213
    31  H    4.538476   2.667311   2.148260   3.369597   5.466586
    32  H    4.298438   3.038925   2.148264   3.038769   5.112938
    33  C    5.741065   5.006856   3.875587   4.354806   6.332871
    34  H    4.175787   3.854997   2.732987   2.959195   4.749450
    35  H    3.913583   4.120872   2.733000   2.576208   4.337740
    36  C    6.507040   6.254328   5.029635   5.187398   6.906755
    37  H    6.058246   5.273676   4.154951   4.659114   6.650461
    38  H    6.230839   5.068629   4.154936   4.881320   6.926028
    39  H    7.534713   7.109744   5.935516   6.192004   7.954633
    40  H    6.479770   6.305706   5.142192   5.249233   6.853339
    41  H    6.313984   6.471677   5.142204   5.043262   6.574724
                   26         27         28         29         30
    26  H    0.000000
    27  H    4.279572   0.000000
    28  N   10.727700   8.593794   0.000000
    29  C    2.736046   2.735678  10.983463   0.000000
    30  C    2.495360   4.121479  12.052302   1.540000   0.000000
    31  H    3.685921   2.471020  10.972857   1.070000   2.148261
    32  H    3.138009   3.137633  11.349994   1.070000   2.148262
    33  C    3.928235   5.117526  13.401903   2.514804   1.540002
    34  H    2.693318   4.244306  11.851599   2.148264   1.070001
    35  H    1.874866   4.664010  12.201617   2.148266   1.069999
    36  C    4.527283   6.481977  14.510584   3.875580   2.514814
    37  H    4.218082   5.343209  13.703902   2.732974   2.148266
    38  H    4.640154   4.981059  13.393196   2.732964   2.148261
    39  H    5.548212   7.231952  15.437514   4.653777   3.444317
    40  H    4.639339   6.560760  14.344321   4.154944   2.732982
    41  H    4.217184   6.839775  14.634848   4.154951   2.732985
                   31         32         33         34         35
    31  H    0.000000
    32  H    1.747304   0.000000
    33  C    2.732963   2.732971   0.000000
    34  H    2.468848   3.024611   2.148267   0.000000
    35  H    3.024610   2.468845   2.148265   1.747302   0.000000
    36  C    4.154932   4.154941   1.539999   2.732985   2.732987
    37  H    3.062231   2.514804   1.070001   3.024615   2.468849
    38  H    2.514785   3.062231   1.069999   2.468849   3.024609
    39  H    4.810163   4.810174   2.148260   3.711000   3.711000
    40  H    4.329391   4.668702   2.148262   2.514817   3.062253
    41  H    4.668699   4.329407   2.148264   3.062251   2.514824
                   36         37         38         39         40
    36  C    0.000000
    37  H    2.148262   0.000000
    38  H    2.148261   1.747302   0.000000
    39  H    1.070000   2.468840   2.468842   0.000000
    40  H    1.070001   3.024610   2.468843   1.747305   0.000000
    41  H    1.069999   2.468847   3.024609   1.747302   1.747302
                   41
    41  H    0.000000
 Stoichiometry    C21H19N
 Framework group  C1[X(C21H19N)]
 Deg. of freedom   117
 Full point group                 C1      NOp   1
 Largest Abelian subgroup         C1      NOp   1
 Largest concise Abelian subgroup C1      NOp   1
                         Standard orientation:                         
 ---------------------------------------------------------------------
 Center     Atomic      Atomic             Coordinates (Angstroms)
 Number     Number       Type             X           Y           Z
 ---------------------------------------------------------------------
      1          6           0       -0.616571    0.967024   -0.196131
      2          6           0        0.598152    1.567222   -0.119900
      3          6           0        1.759887    0.789637   -0.052585
      4          6           0        1.658821   -0.604904   -0.064490
      5          6           0        0.397014   -1.205276   -0.143584
      6          6           0       -0.718261   -0.434786   -0.208108
      7          6           0        3.018202    1.401631    0.026347
      8          6           0        2.815489   -1.394118    0.002475
      9          6           0        4.073013   -0.780824    0.081365
     10          6           0        4.172239    0.610203    0.093144
     11          6           0        5.436560    1.195219    0.172330
     12          1           0        5.539568    2.260196    0.182992
     13          6           0        6.570363    0.373553    0.237774
     14          6           0        5.239266   -1.554789    0.148975
     15          1           0        3.097134    2.468676    0.035555
     16          1           0        0.667755    2.634921   -0.111254
     17          1           0        0.311697   -2.271826   -0.153177
     18          1           0        2.738393   -2.461298   -0.006619
     19          1           0        7.543277    0.814721    0.298673
     20          1           0        5.169983   -2.622508    0.140351
     21          6           0       -1.775676    1.752224   -0.263247
     22          6           0       -1.978471   -1.043218   -0.287134
     23          6           0       -3.135562   -0.255864   -0.354119
     24          6           0       -3.034204    1.141354   -0.342178
     25          1           0       -1.699369    2.819462   -0.254195
     26          1           0       -3.918104    1.742188   -0.393344
     27          1           0       -2.056999   -2.110293   -0.296321
     28          7           0        6.444121   -0.964470    0.224573
     29          6           0       -4.519099   -0.926612   -0.440886
     30          6           0       -5.571223   -0.021348    0.226298
     31          1           0       -4.490065   -1.870464    0.062303
     32          1           0       -4.778399   -1.077789   -1.467926
     33          6           0       -6.954745   -0.692127    0.139531
     34          1           0       -5.311921    0.129836    1.253336
     35          1           0       -5.600269    0.922503   -0.276892
     36          6           0       -8.006880    0.213119    0.806719
     37          1           0       -7.214045   -0.843308   -0.887508
     38          1           0       -6.925693   -1.635979    0.642718
     39          1           0       -8.968154   -0.252947    0.746429
     40          1           0       -7.747582    0.364298    1.833759
     41          1           0       -8.035934    1.156973    0.303535
 ---------------------------------------------------------------------
 Rotational constants (GHZ):      1.3773937      0.0944084      0.0892556
 Leave Link  202 at Wed Jun 28 11:36:40 2023, MaxMem=   134217728 cpu:         0.4
 (Enter /share/apps/gaussian/g09/l301.exe)
 Standard basis: 6-31G(d,p) (6D, 7F)
 Ernie: Thresh=  0.10000D-02 Tol=  0.10000D-05 Strict=F.
 There are   425 symmetry adapted cartesian basis functions of A   symmetry.
 There are   425 symmetry adapted basis functions of A   symmetry.
   425 basis functions,   749 primitive gaussians,   425 cartesian basis functions
    76 alpha electrons       76 beta electrons
       nuclear repulsion energy      1554.5486963578 Hartrees.
 IExCor=  402 DFT=T Ex+Corr=B3LYP ExCW=0 ScaHFX=  0.200000
 ScaDFX=  0.800000  0.720000  1.000000  0.810000 ScalE2=  1.000000  1.000000
 IRadAn=      0 IRanWt=     -1 IRanGd=            0 ICorTp=0 IEmpDi=  4
 NAtoms=   41 NActive=   41 NUniq=   41 SFac= 1.00D+00 NAtFMM=   60 NAOKFM=F Big=F
 Integral buffers will be    131072 words long.
 Raffenetti 2 integral format.
 Two-electron integral symmetry is turned on.
 Leave Link  301 at Wed Jun 28 11:36:40 2023, MaxMem=   134217728 cpu:         0.4
 (Enter /share/apps/gaussian/g09/l302.exe)
 NPDir=0 NMtPBC=     1 NCelOv=     1 NCel=       1 NClECP=     1 NCelD=      1
         NCelK=      1 NCelE2=     1 NClLst=     1 CellRange=     0.0.
 One-electron integrals computed using PRISM.
 NBasis=   425 RedAO= T EigKep=  1.66D-04  NBF=   425
 NBsUse=   425 1.00D-06 EigRej= -1.00D+00 NBFU=   425
 Precomputing XC quadrature grid using
 IXCGrd= 4 IRadAn=           0 IRanWt=          -1 IRanGd=           0 AccXCQ= 0.00D+00.
 Generated NRdTot=       0 NPtTot=           0 NUsed=           0 NTot=          32
 NSgBfM=   399   399   399   399   399 MxSgAt=    41 MxSgA2=    41.
 Leave Link  302 at Wed Jun 28 11:36:42 2023, MaxMem=   134217728 cpu:        15.1
 (Enter /share/apps/gaussian/g09/l303.exe)
 DipDrv:  MaxL=1.
 Leave Link  303 at Wed Jun 28 11:36:43 2023, MaxMem=   134217728 cpu:         0.9
 (Enter /share/apps/gaussian/g09/l401.exe)
 ExpMin= 1.61D-01 ExpMax= 4.17D+03 ExpMxC= 6.27D+02 IAcc=1 IRadAn=         1 AccDes= 0.00D+00
 Harris functional with IExCor=  402 and IRadAn=       1 diagonalized for initial guess.
 HarFok:  IExCor=  402 AccDes= 0.00D+00 IRadAn=         1 IDoV= 1 UseB2=F ITyADJ=14
 ICtDFT=  3500011 ScaDFX=  1.000000  1.000000  1.000000  1.000000
 FoFCou: FMM=F IPFlag=           0 FMFlag=      100000 FMFlg1=           0
         NFxFlg=           0 DoJE=T BraDBF=F KetDBF=T FulRan=T
         wScrn=  0.000000 ICntrl=     500 IOpCl=  0 I1Cent=   200000004 NGrid=           0
         NMat0=    1 NMatS0=      1 NMatT0=    0 NMatD0=    1 NMtDS0=    0 NMtDT0=    0
 Petite list used in FoFCou.
 Harris En= -866.527183770728    
 JPrj=0 DoOrth=F DoCkMO=F.
 Leave Link  401 at Wed Jun 28 11:36:44 2023, MaxMem=   134217728 cpu:         7.6
 (Enter /share/apps/gaussian/g09/l502.exe)
 Closed shell SCF:
 Using DIIS extrapolation, IDIIS=  1040.
 Integral symmetry usage will be decided dynamically.
 IVT=      568727 IEndB=      568727 NGot=   134217728 MDV=   133846692
 LenX=   133846692 LenY=   133665626
 Requested convergence on RMS density matrix=1.00D-08 within 128 cycles.
 Requested convergence on MAX density matrix=1.00D-06.
 Requested convergence on             energy=1.00D-06.
 No special actions if energy rises.
 Fock matrices will be formed incrementally for  20 cycles.
 Integral accuracy reduced to 1.0D-05 until final iterations.

 Cycle   1  Pass 0  IDiag  1:
 FoFJK:  IHMeth= 1 ICntrl=       0 DoSepK=F KAlg= 0 I1Cent=   0 FoldK=F
 IRaf= 590000000 NMat=   1 IRICut=       1 DoRegI=T DoRafI=F ISym2E= 0.
 FoFCou: FMM=F IPFlag=           0 FMFlag=      100000 FMFlg1=           0
         NFxFlg=           0 DoJE=F BraDBF=F KetDBF=F FulRan=T
         wScrn=  0.000000 ICntrl=       0 IOpCl=  0 I1Cent=           0 NGrid=           0
         NMat0=    1 NMatS0=      1 NMatT0=    0 NMatD0=    1 NMtDS0=    0 NMtDT0=    0
 Symmetry not used in FoFCou.
 E= -865.955166954889    
 DIIS: error= 4.15D-02 at cycle   1 NSaved=   1.
 NSaved= 1 IEnMin= 1 EnMin= -865.955166954889     IErMin= 1 ErrMin= 4.15D-02
 ErrMax= 4.15D-02  0.00D+00 EMaxC= 1.00D-01 BMatC= 4.49D-01 BMatP= 4.49D-01
 IDIUse=3 WtCom= 5.85D-01 WtEn= 4.15D-01
 Coeff-Com:  0.100D+01
 Coeff-En:   0.100D+01
 Coeff:      0.100D+01
 Gap=     0.090 Goal=   None    Shift=    0.000
 GapD=    0.090 DampG=0.500 DampE=0.500 DampFc=0.2500 IDamp=-1.
 Damping current iteration by 2.50D-01
 RMSDP=4.28D-03 MaxDP=1.34D-01              OVMax= 1.70D-01

 Cycle   2  Pass 0  IDiag  1:
 RMSU=  1.01D-03    CP:  9.77D-01
 E= -866.130743300059     Delta-E=       -0.175576345169 Rises=F Damp=T
 DIIS: error= 2.41D-02 at cycle   2 NSaved=   2.
 NSaved= 2 IEnMin= 2 EnMin= -866.130743300059     IErMin= 2 ErrMin= 2.41D-02
 ErrMax= 2.41D-02  0.00D+00 EMaxC= 1.00D-01 BMatC= 1.40D-01 BMatP= 4.49D-01
 IDIUse=3 WtCom= 7.59D-01 WtEn= 2.41D-01
 Coeff-Com: -0.107D+01 0.207D+01
 Coeff-En:   0.000D+00 0.100D+01
 Coeff:     -0.815D+00 0.182D+01
 Gap=     0.095 Goal=   None    Shift=    0.000
 RMSDP=2.17D-03 MaxDP=9.50D-02 DE=-1.76D-01 OVMax= 1.40D-01

 Cycle   3  Pass 0  IDiag  1:
 RMSU=  1.27D-03    CP:  9.20D-01  2.51D+00
 E= -866.441808614872     Delta-E=       -0.311065314814 Rises=F Damp=F
 DIIS: error= 4.83D-03 at cycle   3 NSaved=   3.
 NSaved= 3 IEnMin= 3 EnMin= -866.441808614872     IErMin= 3 ErrMin= 4.83D-03
 ErrMax= 4.83D-03  0.00D+00 EMaxC= 1.00D-01 BMatC= 1.13D-02 BMatP= 1.40D-01
 IDIUse=3 WtCom= 9.52D-01 WtEn= 4.83D-02
 Coeff-Com: -0.308D+00 0.650D+00 0.657D+00
 Coeff-En:   0.000D+00 0.000D+00 0.100D+01
 Coeff:     -0.293D+00 0.619D+00 0.674D+00
 Gap=     0.089 Goal=   None    Shift=    0.000
 RMSDP=6.18D-04 MaxDP=3.59D-02 DE=-3.11D-01 OVMax= 1.24D-01

 Cycle   4  Pass 0  IDiag  1:
 RMSU=  5.25D-04    CP:  9.25D-01  2.38D+00  7.71D-01
 E= -866.440688764745     Delta-E=        0.001119850127 Rises=F Damp=F
 DIIS: error= 7.45D-03 at cycle   4 NSaved=   4.
 NSaved= 4 IEnMin= 3 EnMin= -866.441808614872     IErMin= 3 ErrMin= 4.83D-03
 ErrMax= 7.45D-03  0.00D+00 EMaxC= 1.00D-01 BMatC= 1.16D-02 BMatP= 1.13D-02
 IDIUse=3 WtCom= 9.26D-01 WtEn= 7.45D-02
 Coeff-Com: -0.345D-01 0.113D+00 0.496D+00 0.426D+00
 Coeff-En:   0.000D+00 0.000D+00 0.517D+00 0.483D+00
 Coeff:     -0.319D-01 0.105D+00 0.497D+00 0.430D+00
 Gap=     0.090 Goal=   None    Shift=    0.000
 RMSDP=3.86D-04 MaxDP=2.42D-02 DE= 1.12D-03 OVMax= 9.85D-02

 Cycle   5  Pass 0  IDiag  1:
 RMSU=  1.71D-04    CP:  9.25D-01  2.37D+00  8.47D-01  3.68D-01
 E= -866.453319005221     Delta-E=       -0.012630240476 Rises=F Damp=F
 DIIS: error= 2.50D-03 at cycle   5 NSaved=   5.
 NSaved= 5 IEnMin= 5 EnMin= -866.453319005221     IErMin= 5 ErrMin= 2.50D-03
 ErrMax= 2.50D-03  0.00D+00 EMaxC= 1.00D-01 BMatC= 1.15D-03 BMatP= 1.13D-02
 IDIUse=3 WtCom= 9.75D-01 WtEn= 2.50D-02
 Coeff-Com:  0.105D-01 0.424D-02 0.260D+00 0.289D+00 0.436D+00
 Coeff-En:   0.000D+00 0.000D+00 0.000D+00 0.788D-01 0.921D+00
 Coeff:      0.103D-01 0.413D-02 0.254D+00 0.284D+00 0.448D+00
 Gap=     0.091 Goal=   None    Shift=    0.000
 RMSDP=1.29D-04 MaxDP=8.53D-03 DE=-1.26D-02 OVMax= 3.35D-02

 Cycle   6  Pass 0  IDiag  1:
 RMSU=  5.91D-05    CP:  9.24D-01  2.38D+00  8.50D-01  4.84D-01  4.38D-01
 E= -866.454541258479     Delta-E=       -0.001222253258 Rises=F Damp=F
 DIIS: error= 6.88D-04 at cycle   6 NSaved=   6.
 NSaved= 6 IEnMin= 6 EnMin= -866.454541258479     IErMin= 6 ErrMin= 6.88D-04
 ErrMax= 6.88D-04  0.00D+00 EMaxC= 1.00D-01 BMatC= 1.37D-04 BMatP= 1.15D-03
 IDIUse=3 WtCom= 9.93D-01 WtEn= 6.88D-03
 Coeff-Com:  0.124D-01-0.140D-01 0.989D-01 0.123D+00 0.293D+00 0.486D+00
 Coeff-En:   0.000D+00 0.000D+00 0.000D+00 0.000D+00 0.116D+00 0.884D+00
 Coeff:      0.123D-01-0.139D-01 0.982D-01 0.123D+00 0.292D+00 0.489D+00
 Gap=     0.091 Goal=   None    Shift=    0.000
 RMSDP=4.23D-05 MaxDP=2.54D-03 DE=-1.22D-03 OVMax= 9.61D-03

 Cycle   7  Pass 0  IDiag  1:
 RMSU=  1.98D-05    CP:  9.24D-01  2.39D+00  8.52D-01  4.71D-01  5.57D-01
                    CP:  4.83D-01
 E= -866.454685955489     Delta-E=       -0.000144697010 Rises=F Damp=F
 DIIS: error= 1.83D-04 at cycle   7 NSaved=   7.
 NSaved= 7 IEnMin= 7 EnMin= -866.454685955489     IErMin= 7 ErrMin= 1.83D-04
 ErrMax= 1.83D-04  0.00D+00 EMaxC= 1.00D-01 BMatC= 1.48D-05 BMatP= 1.37D-04
 IDIUse=3 WtCom= 9.98D-01 WtEn= 1.83D-03
 Coeff-Com:  0.695D-02-0.953D-02 0.349D-01 0.459D-01 0.138D+00 0.315D+00
 Coeff-Com:  0.469D+00
 Coeff-En:   0.000D+00 0.000D+00 0.000D+00 0.000D+00 0.000D+00 0.763D-01
 Coeff-En:   0.924D+00
 Coeff:      0.694D-02-0.952D-02 0.348D-01 0.458D-01 0.137D+00 0.315D+00
 Coeff:      0.470D+00
 Gap=     0.091 Goal=   None    Shift=    0.000
 RMSDP=1.21D-05 MaxDP=8.04D-04 DE=-1.45D-04 OVMax= 2.12D-03

 Cycle   8  Pass 0  IDiag  1:
 RMSU=  4.98D-06    CP:  9.24D-01  2.39D+00  8.54D-01  4.70D-01  5.46D-01
                    CP:  5.89D-01  5.59D-01
 E= -866.454702430256     Delta-E=       -0.000016474767 Rises=F Damp=F
 DIIS: error= 3.40D-05 at cycle   8 NSaved=   8.
 NSaved= 8 IEnMin= 8 EnMin= -866.454702430256     IErMin= 8 ErrMin= 3.40D-05
 ErrMax= 3.40D-05  0.00D+00 EMaxC= 1.00D-01 BMatC= 7.02D-07 BMatP= 1.48D-05
 IDIUse=1 WtCom= 1.00D+00 WtEn= 0.00D+00
 Coeff-Com:  0.298D-02-0.420D-02 0.126D-01 0.165D-01 0.552D-01 0.140D+00
 Coeff-Com:  0.261D+00 0.516D+00
 Coeff:      0.298D-02-0.420D-02 0.126D-01 0.165D-01 0.552D-01 0.140D+00
 Coeff:      0.261D+00 0.516D+00
 Gap=     0.091 Goal=   None    Shift=    0.000
 RMSDP=3.16D-06 MaxDP=1.46D-04 DE=-1.65D-05 OVMax= 3.79D-04

 Initial convergence to 1.0D-05 achieved.  Increase integral accuracy.
 Cycle   9  Pass 1  IDiag  1:
 E= -866.454620862727     Delta-E=        0.000081567529 Rises=F Damp=F
 DIIS: error= 9.13D-05 at cycle   1 NSaved=   1.
 NSaved= 1 IEnMin= 1 EnMin= -866.454620862727     IErMin= 1 ErrMin= 9.13D-05
 ErrMax= 9.13D-05  0.00D+00 EMaxC= 1.00D-01 BMatC= 1.49D-06 BMatP= 1.49D-06
 IDIUse=1 WtCom= 1.00D+00 WtEn= 0.00D+00
 Coeff-Com:  0.100D+01
 Coeff:      0.100D+01
 Gap=     0.091 Goal=   None    Shift=    0.000
 RMSDP=3.16D-06 MaxDP=1.46D-04 DE= 8.16D-05 OVMax= 2.61D-04

 Cycle  10  Pass 1  IDiag  1:
 RMSU=  5.34D-05    CP:  1.00D+00
 E= -866.454621782578     Delta-E=       -0.000000919852 Rises=F Damp=F
 DIIS: error= 1.77D-05 at cycle   2 NSaved=   2.
 NSaved= 2 IEnMin= 2 EnMin= -866.454621782578     IErMin= 2 ErrMin= 1.77D-05
 ErrMax= 1.77D-05  0.00D+00 EMaxC= 1.00D-01 BMatC= 2.31D-07 BMatP= 1.49D-06
 IDIUse=1 WtCom= 1.00D+00 WtEn= 0.00D+00
 Coeff-Com:  0.175D+00 0.825D+00
 Coeff:      0.175D+00 0.825D+00
 Gap=     0.091 Goal=   None    Shift=    0.000
 RMSDP=3.39D-06 MaxDP=1.73D-04 DE=-9.20D-07 OVMax= 4.74D-04

 Cycle  11  Pass 1  IDiag  1:
 RMSU=  3.38D-06    CP:  1.00D+00  1.01D+00
 E= -866.454621467014     Delta-E=        0.000000315565 Rises=F Damp=F
 DIIS: error= 2.87D-05 at cycle   3 NSaved=   3.
 NSaved= 3 IEnMin= 2 EnMin= -866.454621782578     IErMin= 2 ErrMin= 1.77D-05
 ErrMax= 2.87D-05  0.00D+00 EMaxC= 1.00D-01 BMatC= 5.05D-07 BMatP= 2.31D-07
 IDIUse=1 WtCom= 1.00D+00 WtEn= 0.00D+00
 Coeff-Com: -0.259D-02 0.598D+00 0.404D+00
 Coeff:     -0.259D-02 0.598D+00 0.404D+00
 Gap=     0.091 Goal=   None    Shift=    0.000
 RMSDP=2.09D-06 MaxDP=1.17D-04 DE= 3.16D-07 OVMax= 3.07D-04

 Cycle  12  Pass 1  IDiag  1:
 RMSU=  3.95D-07    CP:  1.00D+00  1.01D+00  3.95D-01
 E= -866.454622035335     Delta-E=       -0.000000568321 Rises=F Damp=F
 DIIS: error= 3.23D-06 at cycle   4 NSaved=   4.
 NSaved= 4 IEnMin= 4 EnMin= -866.454622035335     IErMin= 4 ErrMin= 3.23D-06
 ErrMax= 3.23D-06  0.00D+00 EMaxC= 1.00D-01 BMatC= 6.18D-09 BMatP= 2.31D-07
 IDIUse=1 WtCom= 1.00D+00 WtEn= 0.00D+00
 Coeff-Com: -0.427D-02 0.353D+00 0.248D+00 0.403D+00
 Coeff:     -0.427D-02 0.353D+00 0.248D+00 0.403D+00
 Gap=     0.091 Goal=   None    Shift=    0.000
 RMSDP=2.54D-07 MaxDP=1.56D-05 DE=-5.68D-07 OVMax= 4.03D-05

 Cycle  13  Pass 1  IDiag  1:
 RMSU=  1.45D-07    CP:  1.00D+00  1.01D+00  4.10D-01  4.89D-01
 E= -866.454622041946     Delta-E=       -0.000000006612 Rises=F Damp=F
 DIIS: error= 1.07D-06 at cycle   5 NSaved=   5.
 NSaved= 5 IEnMin= 5 EnMin= -866.454622041946     IErMin= 5 ErrMin= 1.07D-06
 ErrMax= 1.07D-06  0.00D+00 EMaxC= 1.00D-01 BMatC= 3.53D-10 BMatP= 6.18D-09
 IDIUse=1 WtCom= 1.00D+00 WtEn= 0.00D+00
 Coeff-Com: -0.248D-02 0.177D+00 0.125D+00 0.249D+00 0.450D+00
 Coeff:     -0.248D-02 0.177D+00 0.125D+00 0.249D+00 0.450D+00
 Gap=     0.091 Goal=   None    Shift=    0.000
 RMSDP=7.14D-08 MaxDP=3.53D-06 DE=-6.61D-09 OVMax= 1.60D-05

 Cycle  14  Pass 1  IDiag  1:
 RMSU=  5.32D-08    CP:  1.00D+00  1.01D+00  4.11D-01  5.49D-01  7.15D-01
 E= -866.454622042297     Delta-E=       -0.000000000350 Rises=F Damp=F
 DIIS: error= 5.20D-07 at cycle   6 NSaved=   6.
 NSaved= 6 IEnMin= 6 EnMin= -866.454622042297     IErMin= 6 ErrMin= 5.20D-07
 ErrMax= 5.20D-07  0.00D+00 EMaxC= 1.00D-01 BMatC= 4.98D-11 BMatP= 3.53D-10
 IDIUse=1 WtCom= 1.00D+00 WtEn= 0.00D+00
 Coeff-Com: -0.718D-03 0.432D-01 0.310D-01 0.810D-01 0.287D+00 0.559D+00
 Coeff:     -0.718D-03 0.432D-01 0.310D-01 0.810D-01 0.287D+00 0.559D+00
 Gap=     0.091 Goal=   None    Shift=    0.000
 RMSDP=3.33D-08 MaxDP=1.76D-06 DE=-3.50D-10 OVMax= 9.35D-06

 Cycle  15  Pass 1  IDiag  1:
 RMSU=  2.21D-08    CP:  1.00D+00  1.01D+00  4.10D-01  5.49D-01  7.93D-01
                    CP:  5.83D-01
 E= -866.454622042367     Delta-E=       -0.000000000071 Rises=F Damp=F
 DIIS: error= 3.18D-07 at cycle   7 NSaved=   7.
 NSaved= 7 IEnMin= 7 EnMin= -866.454622042367     IErMin= 7 ErrMin= 3.18D-07
 ErrMax= 3.18D-07  0.00D+00 EMaxC= 1.00D-01 BMatC= 2.15D-11 BMatP= 4.98D-11
 IDIUse=1 WtCom= 1.00D+00 WtEn= 0.00D+00
 Coeff-Com: -0.634D-04-0.205D-02-0.114D-02 0.136D-01 0.131D+00 0.439D+00
 Coeff-Com:  0.419D+00
 Coeff:     -0.634D-04-0.205D-02-0.114D-02 0.136D-01 0.131D+00 0.439D+00
 Coeff:      0.419D+00
 Gap=     0.091 Goal=   None    Shift=    0.000
 RMSDP=1.50D-08 MaxDP=7.96D-07 DE=-7.09D-11 OVMax= 3.54D-06

 Cycle  16  Pass 1  IDiag  1:
 RMSU=  5.86D-09    CP:  1.00D+00  1.01D+00  4.10D-01  5.51D-01  7.94D-01
                    CP:  7.05D-01  4.49D-01
 E= -866.454622042367     Delta-E=        0.000000000001 Rises=F Damp=F
 DIIS: error= 2.44D-08 at cycle   8 NSaved=   8.
 NSaved= 8 IEnMin= 7 EnMin= -866.454622042367     IErMin= 8 ErrMin= 2.44D-08
 ErrMax= 2.44D-08  0.00D+00 EMaxC= 1.00D-01 BMatC= 4.70D-13 BMatP= 2.15D-11
 IDIUse=1 WtCom= 1.00D+00 WtEn= 0.00D+00
 Coeff-Com:  0.382D-04-0.518D-02-0.356D-02-0.116D-02 0.335D-01 0.167D+00
 Coeff-Com:  0.197D+00 0.612D+00
 Coeff:      0.382D-04-0.518D-02-0.356D-02-0.116D-02 0.335D-01 0.167D+00
 Coeff:      0.197D+00 0.612D+00
 Gap=     0.091 Goal=   None    Shift=    0.000
 RMSDP=2.53D-09 MaxDP=1.24D-07 DE= 9.09D-13 OVMax= 3.32D-07

 SCF Done:  E(RB3LYP) =  -866.454622042     A.U. after   16 cycles
            NFock= 16  Conv=0.25D-08     -V/T= 2.0082
 KE= 8.593920520904D+02 PE=-5.115958315803D+03 EE= 1.835562945313D+03
 Leave Link  502 at Wed Jun 28 11:37:29 2023, MaxMem=   134217728 cpu:       543.6
 (Enter /share/apps/gaussian/g09/l601.exe)
 Copying SCF densities to generalized density rwf, IOpCl= 0 IROHF=0.

 **********************************************************************

            Population analysis using the SCF density.

 **********************************************************************

 Orbital symmetries:
       Occupied  (A) (A) (A) (A) (A) (A) (A) (A) (A) (A) (A) (A)
                 (A) (A) (A) (A) (A) (A) (A) (A) (A) (A) (A) (A)
                 (A) (A) (A) (A) (A) (A) (A) (A) (A) (A) (A) (A)
                 (A) (A) (A) (A) (A) (A) (A) (A) (A) (A) (A) (A)
                 (A) (A) (A) (A) (A) (A) (A) (A) (A) (A) (A) (A)
                 (A) (A) (A) (A) (A) (A) (A) (A) (A) (A) (A) (A)
                 (A) (A) (A) (A)
       Virtual   (A) (A) (A) (A) (A) (A) (A) (A) (A) (A) (A) (A)
                 (A) (A) (A) (A) (A) (A) (A) (A) (A) (A) (A) (A)
                 (A) (A) (A) (A) (A) (A) (A) (A) (A) (A) (A) (A)
                 (A) (A) (A) (A) (A) (A) (A) (A) (A) (A) (A) (A)
                 (A) (A) (A) (A) (A) (A) (A) (A) (A) (A) (A) (A)
                 (A) (A) (A) (A) (A) (A) (A) (A) (A) (A) (A) (A)
                 (A) (A) (A) (A) (A) (A) (A) (A) (A) (A) (A) (A)
                 (A) (A) (A) (A) (A) (A) (A) (A) (A) (A) (A) (A)
                 (A) (A) (A) (A) (A) (A) (A) (A) (A) (A) (A) (A)
                 (A) (A) (A) (A) (A) (A) (A) (A) (A) (A) (A) (A)
                 (A) (A) (A) (A) (A) (A) (A) (A) (A) (A) (A) (A)
                 (A) (A) (A) (A) (A) (A) (A) (A) (A) (A) (A) (A)
                 (A) (A) (A) (A) (A) (A) (A) (A) (A) (A) (A) (A)
                 (A) (A) (A) (A) (A) (A) (A) (A) (A) (A) (A) (A)
                 (A) (A) (A) (A) (A) (A) (A) (A) (A) (A) (A) (A)
                 (A) (A) (A) (A) (A) (A) (A) (A) (A) (A) (A) (A)
                 (A) (A) (A) (A) (A) (A) (A) (A) (A) (A) (A) (A)
                 (A) (A) (A) (A) (A) (A) (A) (A) (A) (A) (A) (A)
                 (A) (A) (A) (A) (A) (A) (A) (A) (A) (A) (A) (A)
                 (A) (A) (A) (A) (A) (A) (A) (A) (A) (A) (A) (A)
                 (A) (A) (A) (A) (A) (A) (A) (A) (A) (A) (A) (A)
                 (A) (A) (A) (A) (A) (A) (A) (A) (A) (A) (A) (A)
                 (A) (A) (A) (A) (A) (A) (A) (A) (A) (A) (A) (A)
                 (A) (A) (A) (A) (A) (A) (A) (A) (A) (A) (A) (A)
                 (A) (A) (A) (A) (A) (A) (A) (A) (A) (A) (A) (A)
                 (A) (A) (A) (A) (A) (A) (A) (A) (A) (A) (A) (A)
                 (A) (A) (A) (A) (A) (A) (A) (A) (A) (A) (A) (A)
                 (A) (A) (A) (A) (A) (A) (A) (A) (A) (A) (A) (A)
                 (A) (A) (A) (A) (A) (A) (A) (A) (A) (A) (A) (A)
                 (A)
 The electronic state is 1-A.
 Alpha  occ. eigenvalues --  -14.32070 -10.22059 -10.21245 -10.19746 -10.19746
 Alpha  occ. eigenvalues --  -10.19663 -10.19613 -10.19552 -10.19440 -10.19177
 Alpha  occ. eigenvalues --  -10.19161 -10.19108 -10.19029 -10.18959 -10.18864
 Alpha  occ. eigenvalues --  -10.18642 -10.18562 -10.18504 -10.18371 -10.17710
 Alpha  occ. eigenvalues --  -10.17597 -10.16671  -0.93125  -0.89659  -0.86155
 Alpha  occ. eigenvalues --   -0.82536  -0.80212  -0.79631  -0.77835  -0.76638
 Alpha  occ. eigenvalues --   -0.74086  -0.72590  -0.69437  -0.67271  -0.64231
 Alpha  occ. eigenvalues --   -0.62463  -0.61856  -0.60758  -0.60452  -0.58821
 Alpha  occ. eigenvalues --   -0.55427  -0.52879  -0.51577  -0.49004  -0.48686
 Alpha  occ. eigenvalues --   -0.48115  -0.47035  -0.46387  -0.45740  -0.43638
 Alpha  occ. eigenvalues --   -0.43255  -0.42793  -0.42412  -0.41922  -0.41750
 Alpha  occ. eigenvalues --   -0.41564  -0.40106  -0.39441  -0.39304  -0.38193
 Alpha  occ. eigenvalues --   -0.37495  -0.36662  -0.35274  -0.34897  -0.34502
 Alpha  occ. eigenvalues --   -0.34096  -0.33813  -0.33124  -0.31065  -0.30820
 Alpha  occ. eigenvalues --   -0.29590  -0.28135  -0.24894  -0.23684  -0.23309
 Alpha  occ. eigenvalues --   -0.17772
 Alpha virt. eigenvalues --   -0.08673  -0.02591  -0.01150   0.02058   0.03874
 Alpha virt. eigenvalues --    0.04263   0.08945   0.10301   0.10955   0.11593
 Alpha virt. eigenvalues --    0.11984   0.12300   0.12882   0.13360   0.13768
 Alpha virt. eigenvalues --    0.14536   0.15696   0.16484   0.17349   0.17897
 Alpha virt. eigenvalues --    0.18336   0.18903   0.19215   0.19439   0.20434
 Alpha virt. eigenvalues --    0.21361   0.21792   0.22078   0.22568   0.23631
 Alpha virt. eigenvalues --    0.24170   0.25509   0.25994   0.27362   0.29026
 Alpha virt. eigenvalues --    0.29413   0.30905   0.31415   0.32794   0.33337
 Alpha virt. eigenvalues --    0.33759   0.35244   0.38364   0.39821   0.42644
 Alpha virt. eigenvalues --    0.44478   0.46344   0.47609   0.48788   0.49227
 Alpha virt. eigenvalues --    0.49650   0.50971   0.51229   0.51603   0.52327
 Alpha virt. eigenvalues --    0.52984   0.53741   0.54018   0.54270   0.54544
 Alpha virt. eigenvalues --    0.54768   0.55635   0.56221   0.56634   0.57011
 Alpha virt. eigenvalues --    0.57639   0.58465   0.58785   0.59237   0.59753
 Alpha virt. eigenvalues --    0.59939   0.60217   0.60779   0.61241   0.61583
 Alpha virt. eigenvalues --    0.62215   0.62306   0.62577   0.63398   0.64452
 Alpha virt. eigenvalues --    0.65073   0.65585   0.66644   0.67345   0.68841
 Alpha virt. eigenvalues --    0.69928   0.70930   0.71986   0.72285   0.74356
 Alpha virt. eigenvalues --    0.75044   0.76302   0.78290   0.79945   0.80584
 Alpha virt. eigenvalues --    0.81027   0.81462   0.82135   0.83046   0.83437
 Alpha virt. eigenvalues --    0.84627   0.84738   0.85270   0.85417   0.85705
 Alpha virt. eigenvalues --    0.85923   0.87753   0.87827   0.88571   0.88787
 Alpha virt. eigenvalues --    0.88900   0.91372   0.91790   0.92318   0.93241
 Alpha virt. eigenvalues --    0.93614   0.94650   0.94771   0.96055   0.96652
 Alpha virt. eigenvalues --    0.97707   0.98326   0.98814   0.99624   1.01336
 Alpha virt. eigenvalues --    1.02374   1.03693   1.04509   1.06707   1.08502
 Alpha virt. eigenvalues --    1.09416   1.10896   1.13455   1.15415   1.16030
 Alpha virt. eigenvalues --    1.17333   1.18359   1.20160   1.20879   1.21702
 Alpha virt. eigenvalues --    1.22158   1.23783   1.24660   1.26700   1.27794
 Alpha virt. eigenvalues --    1.28161   1.30837   1.31822   1.34868   1.35333
 Alpha virt. eigenvalues --    1.35493   1.35578   1.36527   1.37809   1.37954
 Alpha virt. eigenvalues --    1.39379   1.39787   1.40592   1.42010   1.43040
 Alpha virt. eigenvalues --    1.43196   1.44834   1.47230   1.49411   1.50515
 Alpha virt. eigenvalues --    1.51040   1.52694   1.54368   1.56432   1.58436
 Alpha virt. eigenvalues --    1.59704   1.59972   1.61699   1.68384   1.69133
 Alpha virt. eigenvalues --    1.72026   1.72231   1.74378   1.74642   1.76091
 Alpha virt. eigenvalues --    1.77412   1.79530   1.80454   1.81632   1.81878
 Alpha virt. eigenvalues --    1.82428   1.83335   1.83512   1.83823   1.84811
 Alpha virt. eigenvalues --    1.86932   1.87658   1.88123   1.88432   1.89617
 Alpha virt. eigenvalues --    1.90426   1.91210   1.91437   1.92138   1.93593
 Alpha virt. eigenvalues --    1.94590   1.95187   1.95562   1.96904   1.97769
 Alpha virt. eigenvalues --    1.99292   1.99462   2.02092   2.03129   2.04894
 Alpha virt. eigenvalues --    2.05123   2.06020   2.08228   2.09404   2.10323
 Alpha virt. eigenvalues --    2.11439   2.12295   2.12993   2.13489   2.13855
 Alpha virt. eigenvalues --    2.16094   2.19408   2.20223   2.21205   2.21595
 Alpha virt. eigenvalues --    2.24164   2.25522   2.26124   2.27555   2.27699
 Alpha virt. eigenvalues --    2.28414   2.29194   2.29582   2.30291   2.30794
 Alpha virt. eigenvalues --    2.30896   2.31819   2.32335   2.33224   2.33768
 Alpha virt. eigenvalues --    2.34812   2.36840   2.37043   2.39219   2.40085
 Alpha virt. eigenvalues --    2.41255   2.42166   2.43805   2.45053   2.45714
 Alpha virt. eigenvalues --    2.48107   2.49202   2.49429   2.50672   2.51125
 Alpha virt. eigenvalues --    2.51264   2.53265   2.54085   2.56815   2.57779
 Alpha virt. eigenvalues --    2.58525   2.59167   2.60172   2.61291   2.62757
 Alpha virt. eigenvalues --    2.63388   2.63849   2.65753   2.66262   2.68790
 Alpha virt. eigenvalues --    2.69163   2.70082   2.70393   2.71028   2.71892
 Alpha virt. eigenvalues --    2.73722   2.73868   2.76048   2.77219   2.78274
 Alpha virt. eigenvalues --    2.78726   2.79391   2.80223   2.81350   2.82927
 Alpha virt. eigenvalues --    2.84342   2.88168   2.89375   2.90294   2.91031
 Alpha virt. eigenvalues --    2.91294   2.93047   2.94559   2.95373   2.96270
 Alpha virt. eigenvalues --    2.97977   2.98372   3.01842   3.06491   3.10541
 Alpha virt. eigenvalues --    3.13439   3.13534   3.16904   3.18108   3.22119
 Alpha virt. eigenvalues --    3.26183   3.27489   3.29309   3.30907   3.32530
 Alpha virt. eigenvalues --    3.35236   3.35629   3.36702   3.40548   3.43434
 Alpha virt. eigenvalues --    3.46534   3.48152   3.49515   3.50016   3.52341
 Alpha virt. eigenvalues --    3.53367   3.59145   3.62218   3.65306   3.79292
 Alpha virt. eigenvalues --    3.84305   3.85533   4.09041   4.11587   4.13091
 Alpha virt. eigenvalues --    4.13588   4.15006   4.15217   4.16560   4.18897
 Alpha virt. eigenvalues --    4.21657   4.28714   4.30816   4.34548   4.38139
 Alpha virt. eigenvalues --    4.40563   4.46790   4.48126   4.54195   4.57020
 Alpha virt. eigenvalues --    4.63905   4.74027   4.84987   5.03044
          Condensed to atoms (all electrons):
               1          2          3          4          5          6
     1  C    4.740144   0.411316   0.008420  -0.034460  -0.023386   0.461468
     2  C    0.411316   5.389104   0.366665  -0.021181  -0.129232  -0.020156
     3  C    0.008420   0.366665   4.812484   0.461557  -0.022039  -0.035279
     4  C   -0.034460  -0.021181   0.461557   4.816743   0.368410   0.010532
     5  C   -0.023386  -0.129232  -0.022039   0.368410   5.388770   0.404086
     6  C    0.461468  -0.020156  -0.035279   0.010532   0.404086   4.773460
     7  C    0.008102  -0.080270   0.383977  -0.025806   0.017156   0.000104
     8  C    0.000129   0.017008  -0.023550   0.381567  -0.081481   0.008062
     9  C   -0.000048   0.000062  -0.032408   0.009543   0.007689  -0.000315
    10  C   -0.000285   0.007260   0.007096  -0.029333   0.000012  -0.000050
    11  C    0.000002  -0.000294   0.008913  -0.000617  -0.000006   0.000000
    12  H    0.000000  -0.000001   0.000241  -0.000009   0.000000   0.000000
    13  C    0.000000   0.000003  -0.000398   0.000046   0.000000   0.000000
    14  C    0.000000   0.000000   0.000065   0.005658  -0.000265   0.000004
    15  H    0.000101  -0.008525  -0.038731   0.004481  -0.000245   0.000037
    16  H   -0.039475   0.359949  -0.039557   0.004520   0.000859   0.004788
    17  H    0.004900   0.000859   0.004492  -0.040189   0.359888  -0.038800
    18  H    0.000035  -0.000241   0.004513  -0.037783  -0.008531   0.000114
    19  H    0.000000   0.000000   0.000004  -0.000001   0.000000   0.000000
    20  H    0.000000   0.000000   0.000027  -0.000134   0.000003   0.000000
    21  C    0.425672  -0.098520   0.009605   0.000016   0.019133  -0.024007
    22  C   -0.038165   0.019311   0.000215   0.008939  -0.091956   0.391435
    23  C   -0.029535  -0.000626  -0.000015  -0.000351   0.008517   0.000093
    24  C   -0.010347   0.009415  -0.000419   0.000016  -0.000453  -0.042879
    25  H   -0.039671  -0.009865   0.000258   0.000025  -0.000251   0.004704
    26  H    0.002594  -0.000258   0.000006  -0.000001   0.000015   0.001068
    27  H    0.005189  -0.000230   0.000022   0.000277  -0.010090  -0.043215
    28  N    0.000000   0.000000   0.000061  -0.000405   0.000001   0.000000
    29  C    0.000943   0.000002   0.000000   0.000004  -0.000290   0.004780
    30  C   -0.000047   0.000000   0.000000   0.000000   0.000004  -0.000177
    31  H    0.000017   0.000000   0.000000   0.000000   0.000000   0.000111
    32  H    0.000024   0.000000   0.000000   0.000000   0.000008  -0.000248
    33  C    0.000000   0.000000   0.000000   0.000000   0.000000   0.000002
    34  H    0.000006   0.000000   0.000000   0.000000   0.000000  -0.000031
    35  H   -0.000022   0.000000   0.000000   0.000000   0.000000   0.000011
    36  C    0.000000   0.000000   0.000000   0.000000   0.000000   0.000000
    37  H    0.000000   0.000000   0.000000   0.000000   0.000000   0.000000
    38  H    0.000000   0.000000   0.000000   0.000000   0.000000   0.000000
    39  H    0.000000   0.000000   0.000000   0.000000   0.000000   0.000000
    40  H    0.000000   0.000000   0.000000   0.000000   0.000000   0.000000
    41  H    0.000000   0.000000   0.000000   0.000000   0.000000   0.000000
               7          8          9         10         11         12
     1  C    0.008102   0.000129  -0.000048  -0.000285   0.000002   0.000000
     2  C   -0.080270   0.017008   0.000062   0.007260  -0.000294  -0.000001
     3  C    0.383977  -0.023550  -0.032408   0.007096   0.008913   0.000241
     4  C   -0.025806   0.381567   0.009543  -0.029333  -0.000617  -0.000009
     5  C    0.017156  -0.081481   0.007689   0.000012  -0.000006   0.000000
     6  C    0.000104   0.008062  -0.000315  -0.000050   0.000000   0.000000
     7  C    5.351101  -0.115790  -0.028613   0.412915  -0.091079  -0.011336
     8  C   -0.115790   5.381571   0.355335  -0.034298   0.019401  -0.000084
     9  C   -0.028613   0.355335   4.906665   0.466190  -0.030890   0.007201
    10  C    0.412915  -0.034298   0.466190   4.767754   0.439619  -0.041690
    11  C   -0.091079   0.019401  -0.030890   0.439619   5.121125   0.353478
    12  H   -0.011336  -0.000084   0.007201  -0.041690   0.353478   0.639409
    13  C    0.007020  -0.000331  -0.029842  -0.013275   0.486686  -0.038963
    14  C    0.014580  -0.066204   0.393365  -0.034605  -0.063206   0.000122
    15  H    0.361405   0.000734   0.004873  -0.039579  -0.008844   0.006361
    16  H   -0.008915  -0.000237   0.000028   0.000116  -0.000002   0.000001
    17  H   -0.000235  -0.008860   0.000135   0.000033   0.000000   0.000000
    18  H    0.000777   0.362598  -0.043485   0.004260  -0.000207   0.000003
    19  H   -0.000222   0.000031   0.001175   0.001029  -0.056921  -0.001226
    20  H   -0.000229  -0.002245  -0.064066   0.002749   0.000530   0.000031
    21  C   -0.000375  -0.000001   0.000000   0.000003   0.000000   0.000000
[...]
 0079619,-0.00093297,-0.00210445,0.00267079,-0.00004591,-0.00001678,0.0
 0010213,-0.00031218,0.00006829,-0.00054052,-0.02664590,-0.10024627,0.0
 9691715,-0.00082874,0.00119304,-0.00059472,-0.00025262,0.00062838,-0.0
 0066510,0.00458073,0.00832735,-0.01791903,0.03232745,0.10518720,0.0000
 1232,0.00001454,-0.00000873,-0.00001193,-0.00000302,0.00000627,0.00000
 622,0.00000382,-0.00000255,0.00000336,0.00000098,0.00000678,-0.0000076
 9,-0.00000473,0.00000948,0.00000335,-0.00002831,-0.00005370,-0.0000052
 8,0.00000258,0.00000133,-0.00000361,-0.00000436,0.00000403,0.00000501,
 0.00000308,-0.00000265,0.00000195,0.00000008,-0.00000043,-0.00000220,0
 .00000336,-0.00000005,0.00000074,-0.00000138,-0.00000040,-0.00000170,0
 .00000117,-0.00000011,-0.00000485,-0.00000784,0.00000244,0.00000130,-0
 .00000148,-0.00000093,0.00000256,-0.00000179,-0.00000202,-0.00000050,-
 0.00000517,-0.00000565,-0.00000050,-0.00000145,-0.00000151,0.00000120,
 0.00000002,-0.00000064,-0.00000047,-0.00000025,-0.00000080,-0.00002457
 ,-0.00002973,0.00001863,-0.00008915,-0.00000844,-0.00001928,-0.0000497
 9,-0.00012174,0.00031784,0.00007011,0.00006747,-0.00000695,0.00000820,
 -0.00000143,-0.00000236,0.00001516,-0.00001323,-0.00001229,-0.00000228
 ,-0.00000439,0.00000990,0.00000892,0.00000327,0.00000087,-0.00045719,-
 0.00034268,0.00079093,0.00072542,0.00050286,-0.00167608,-0.00000032,-0
 .00004775,0.00000114,0.00028495,0.00035625,0.00059667,0.05444816,0.096
 44786,-0.23434034,0.00010598,-0.00056738,0.00098444,0.00026185,-0.0002
 9031,0.00018146,0.00552721,0.01089522,-0.02303730,-0.05845489,-0.10385
 786,0.25751218,-0.00005066,-0.00000815,0.00002608,0.00004207,-0.000013
 88,0.00000330,-0.00001614,-0.00001249,0.00000242,-0.00002673,-0.000025
 72,0.00000549,0.00001739,0.00004728,-0.00001340,-0.00004450,-0.0000510
 1,0.00003939,0.00001755,-0.00000609,0.00000009,0.00001131,0.00002828,-
 0.00000986,-0.00001940,-0.00001741,0.00000588,-0.00000474,-0.00000625,
 0.00000233,0.00000823,-0.00000505,0.00000152,-0.00000071,0.00000149,-0
 .00000028,0.00000023,-0.00000559,0.00000196,0.00000904,0.00002786,-0.0
 0000763,0.00000017,0.00000152,0.00000007,0.00000345,0.00000180,0.00000
 201,-0.00000112,-0.00000885,0.00000365,0.00000067,-0.00000363,0.000001
 17,-0.00000247,-0.00000061,0.00000012,0.00000200,-0.00000292,0.0000008
 2,0.00014832,-0.00010217,-0.00003192,0.00003647,0.00008449,-0.00004848
 ,0.00017795,-0.00041494,0.00027339,0.00004914,0.00015121,-0.00016901,0
 .00002115,0.00000074,0.00000264,0.00002593,-0.00010729,0.00014572,-0.0
 0002651,-0.00004345,0.00000427,-0.00001843,-0.00000780,0.00000138,0.00
 136191,0.00164049,0.00082488,-0.01747534,0.03098826,-0.00164757,-0.000
 05347,-0.00101927,-0.00053618,-0.00002607,-0.00012061,-0.00007416,-0.0
 9564297,0.09830529,-0.00065156,0.00142806,-0.00026835,0.00027490,-0.00
 667811,-0.00126056,0.00026054,0.00518881,-0.01216875,-0.00000612,0.003
 56866,-0.00767140,-0.00038602,0.10742487,-0.00000446,-0.00001380,0.000
 00203,0.00000474,0.00001018,0.00000184,0.00000027,-0.00000754,0.000000
 69,-0.00001384,0.00001164,-0.00000002,0.00002584,-0.00000650,0.0000037
 3,-0.00003728,0.00001654,-0.00003442,0.00000077,0.00000626,-0.00000106
 ,0.00000771,-0.00000723,0.00000364,-0.00000268,0.00000829,-0.00000359,
 0.00000184,-0.00000445,0.00000138,-0.00000207,0.00000426,-0.00000097,0
 .00000014,-0.00000040,-0.00000018,0.00000358,-0.00000231,0.00000007,0.
 00000087,-0.00001291,0.00000272,-0.00000023,-0.00000061,-0.00000069,-0
 .00000134,-0.00000043,-0.00000111,0.00000029,0.00000376,-0.00000327,-0
 .00000036,0.00000187,-0.00000133,0.00000106,0.00000020,-0.00000007,-0.
 00000139,0.00000193,-0.00000066,-0.00000466,0.00003386,-0.00002158,0.0
 0010671,-0.00003639,0.00001698,-0.00003090,0.00040355,0.00008663,-0.00
 015970,-0.00006745,-0.00002110,-0.00001071,0.00000119,0.00000617,-0.00
 001075,-0.00000714,-0.00000945,0.00000693,0.00001912,0.00000475,0.0000
 0291,0.00000713,0.00000013,-0.00037759,0.00060782,0.00012531,-0.001688
 36,0.00332277,-0.00033549,0.00034267,0.00041862,0.00036528,0.00002843,
 -0.00006629,-0.00005329,0.09846531,-0.25342814,0.00456838,0.00049194,0
 .00061778,-0.00027533,-0.00121301,0.00127028,-0.00043188,0.00701818,-0
 .01671547,-0.00013072,0.00607500,-0.01334322,0.00060560,-0.10688085,0.
 27609739,-0.00000343,-0.00000142,-0.00000052,0.00000141,-0.00000086,0.
 00000036,-0.00000021,-0.00000044,0.00000019,-0.00000320,0.00000237,-0.
 00000093,0.00000864,-0.00000346,-0.00000202,-0.00000855,0.00000700,-0.
 00000036,0.00000009,-0.00000016,-0.00000035,0.00000248,-0.00000131,-0.
 00000103,-0.00000151,0.00000038,0.00000013,0.00000063,0.00000012,0.000
 00003,-0.00000026,-0.00000011,-0.00000011,-0.00000006,0.00000019,0.000
 00006,0.00000139,-0.00000022,0.00000002,0.00000144,-0.00000034,0.,-0.0
 0000010,0.00000017,0.00000011,0.00000006,0.00000037,0.00000041,-0.0000
 0013,0.00000214,0.00000302,0.00000010,0.00000082,0.00000090,-0.0000001
 9,0.00000003,0.00000014,-0.00000009,0.00000041,0.00000026,0.00000562,-
 0.00001936,0.00000732,0.00002486,-0.00000848,-0.00000485,0.00001450,-0
 .00009387,-0.00009379,0.00001617,0.00002746,-0.00002488,0.00000493,0.0
 0000208,0.00000399,0.00001222,-0.00000911,-0.00000178,-0.00000518,0.00
 000404,0.00001409,-0.00000152,-0.00000013,-0.00000046,-0.00028634,0.00
 073938,0.00015880,0.00105722,-0.00178477,-0.00059867,-0.00013281,-0.00
 014105,0.00017181,-0.00002354,0.00012584,0.00002123,-0.00105684,0.0050
 1352,-0.05028049,-0.00011622,-0.00066456,0.00017469,0.00032133,-0.0004
 6282,0.00078615,0.01104438,-0.02516855,-0.00051357,-0.01278407,0.02582
 633,-0.00019480,0.00310636,-0.00132389,0.05220158,-0.00001573,0.000017
 02,-0.00000411,0.00000213,-0.00002440,0.00000330,-0.00000801,0.0000210
 0,-0.00000566,0.00001847,-0.00002474,0.00000273,-0.00004039,0.00002122
 ,-0.00000791,0.00005511,-0.00001776,0.00004632,0.00000376,-0.00002561,
 0.00000722,-0.00000774,0.00002647,-0.00000894,-0.00000768,-0.00003329,
 0.00001097,-0.00000439,0.00001880,-0.00000564,0.00000590,-0.00002027,0
 .00000587,-0.00000290,0.00000485,-0.00000132,0.00000207,0.00000247,-0.
 00000055,0.00000976,0.00004697,-0.00001371,-0.00000331,0.00000423,-0.0
 0000080,-0.00000492,0.00000452,0.00000006,0.00000390,0.00000114,0.0000
 0256,0.00000325,-0.00000224,0.00000102,-0.00000705,-0.00000107,0.00000
 035,0.00000437,-0.00000407,0.00000123,-0.00000554,0.00001052,-0.000003
 09,-0.00012977,0.00004877,-0.00002051,0.00016756,-0.00018860,-0.000233
 84,-0.00006278,-0.00004918,0.00000935,-0.00001731,0.00000419,0.0000014
 2,0.00001554,-0.00001484,0.00001835,0.00000558,0.00000761,-0.00001354,
 -0.00003079,-0.00002331,0.00000631,-0.00061625,0.00019494,0.00051901,0
 .00088428,-0.00166610,-0.00272465,-0.00001893,-0.00008278,-0.00004113,
 -0.00002447,0.00001629,-0.00007406,-0.00934750,-0.00011202,0.00145051,
 0.00025043,0.00009727,0.00006440,0.00038106,0.00002786,0.00010147,-0.3
 0987314,-0.02399350,0.01663460,0.00039793,0.00032527,-0.00039938,0.000
 57158,-0.00044825,0.00004867,0.33531151,-0.00002476,-0.00000532,-0.000
 00130,0.00001116,-0.00000566,0.00000151,-0.00001334,0.00000265,-0.0000
 0009,0.00001088,-0.00001631,-0.00000244,-0.00003056,0.00001764,-0.0000
 0345,0.00004272,-0.00001748,0.00005411,0.00000762,-0.00001002,0.000003
 49,-0.00000526,0.00001597,-0.00000528,-0.00000481,-0.00001538,0.000005
 70,-0.00000642,0.00000459,-0.00000158,0.00000562,-0.00000906,0.0000027
 5,-0.00000170,0.00000217,-0.00000079,-0.00000150,-0.00000046,0.0000001
 7,0.00000506,0.00002403,-0.00000704,-0.00000238,0.00000224,-0.00000094
 ,-0.00000434,0.00000276,-0.00000138,0.00000213,0.00000082,0.00000167,0
 .00000159,-0.00000127,0.,-0.00000308,-0.00000057,0.00000016,0.00000215
 ,-0.00000215,0.00000054,0.00000807,0.00002419,0.00000436,-0.00011963,0
 .00003718,-0.00000849,0.00012741,-0.00024292,-0.00031825,-0.00006458,-
 0.00004183,0.00002346,-0.00001420,0.00000262,-0.00000458,0.00001125,0.
 00000064,-0.00000602,0.00000418,-0.00000247,-0.00001647,-0.00001581,-0
 .00000996,0.00000312,-0.00128473,0.00046523,0.00003376,-0.00001974,-0.
 00195513,-0.00337499,0.00004443,-0.00000065,0.00010734,-0.00000911,0.0
 0001036,-0.00005056,-0.01896969,-0.00240140,0.00241468,0.00044772,0.00
 006549,-0.00008660,-0.00034434,0.00032264,-0.00010992,-0.02348143,-0.0
 5035383,0.00195684,0.00061809,0.00059472,0.00026041,0.00006610,0.00030
 428,0.00077790,0.02735596,0.05092848,-0.00002750,-0.00000074,-0.000003
 96,0.00000969,-0.00000925,0.00000230,-0.00001563,0.00000505,-0.0000011
 7,0.00001572,-0.00001919,-0.00000506,-0.00004164,0.00001659,-0.0000017
 5,0.00005663,-0.00001753,0.00007984,0.00000760,-0.00001213,0.00000472,
 -0.00000788,0.00001619,-0.00000484,-0.00000412,-0.00001642,0.00000654,
 -0.00000780,0.00000602,-0.00000221,0.00000601,-0.00001033,0.00000325,-
 0.00000200,0.00000248,-0.00000100,-0.00000194,-0.00000031,0.00000027,0
 .00000514,0.00002525,-0.00000714,-0.00000291,0.00000264,-0.00000127,-0
 .00000513,0.00000345,-0.00000169,0.00000262,-0.00000019,0.00000123,0.0
 0000173,-0.00000167,-0.00000050,-0.00000332,-0.00000068,0.00000012,0.0
 0000221,-0.00000232,0.00000043,0.00000220,0.00002342,0.00000799,-0.000
 16965,0.00003567,-0.00000332,0.00014196,-0.00032446,-0.00043072,-0.000
 06409,-0.00004411,0.00001842,-0.00001663,0.00000367,-0.00000424,0.0000
 1351,-0.00000089,-0.00000125,0.00000560,-0.00001048,-0.00003000,-0.000
 01700,-0.00001051,0.00000318,-0.00170625,-0.00021060,0.00051169,-0.000
 15762,-0.00299902,-0.00439100,0.00001499,-0.00004421,0.00002612,0.0000
 3869,0.00012776,0.00005156,-0.02748764,-0.00145002,0.00197726,-0.00016
 552,-0.00031513,0.00025712,0.00029621,0.00011127,-0.00011057,0.0174273
 3,0.00204199,-0.04894064,0.00022198,0.00085702,0.00084093,0.00065644,0
 .00034815,0.00095945,-0.01701469,0.00041643,0.05116407,0.00000508,-0.0
 0000484,-0.00000003,-0.00000326,0.00000501,0.00000056,0.00000300,-0.00
 000506,0.00000119,-0.00000668,0.00000701,-0.00000086,0.00001040,-0.000
 00413,0.00000343,-0.00002605,-0.00000338,-0.00001224,-0.00000217,0.000
 00652,-0.00000150,0.00000214,-0.00000802,0.00000296,0.00000225,0.00000
 986,-0.00000333,0.00000164,-0.00000448,0.00000131,-0.00000240,0.000005
 40,-0.00000153,0.00000067,-0.00000118,0.00000027,0.00000010,-0.0000007
 6,0.00000008,-0.00000298,-0.00001459,0.00000411,0.00000067,-0.00000111
 ,0.,0.00000090,-0.00000104,-0.00000060,-0.00000075,-0.00000057,-0.0000
 0136,-0.00000088,0.00000074,-0.00000045,0.00000182,0.00000030,-0.00000
 005,-0.00000136,0.00000137,-0.00000037,-0.00000497,-0.00000344,0.00000
 381,0.00001907,-0.00000299,0.00001068,-0.00007438,-0.00000691,0.000077
 56,0.00001618,0.00001499,-0.00000114,0.00000283,-0.00000066,-0.0000013
 0,0.00000034,0.00000272,-0.00000570,0.00000028,-0.00000478,0.,0.000008
 72,0.00000712,-0.00000177,0.00004070,-0.00007220,-0.00007419,0.0011389
 1,0.00102239,-0.00093403,0.00000561,0.00002999,0.00001622,-0.00007449,
 -0.00003483,0.00014945,0.00197288,0.00584898,-0.01057759,0.00002143,-0
 .00030114,0.00037711,-0.00004729,0.00000699,-0.00002906,-0.06206354,-0
 .02524396,0.05128327,-0.00020367,-0.00138775,-0.00215305,0.00014408,0.
 00010691,0.00074008,-0.00593682,-0.01496182,0.02903343,0.06226961,0.00
 000289,-0.00000148,0.00000106,0.00000135,0.00000116,-0.00000200,0.0000
 0127,-0.00000124,0.00000079,-0.00000145,0.00000071,0.00000224,0.000001
 42,0.00000291,-0.00000288,-0.00000611,-0.00000900,-0.00001051,0.000000
 18,0.00000097,-0.00000159,0.00000043,-0.00000018,-0.00000069,0.0000003
 3,0.00000121,-0.00000041,0.00000047,-0.00000095,0.00000054,-0.00000025
 ,0.00000059,-0.00000064,0.00000022,-0.00000003,0.00000047,0.00000017,-
 0.00000037,0.,-0.00000096,-0.00000141,0.00000039,0.00000031,-0.0000000
 7,0.00000083,0.00000045,-0.00000026,0.00000133,-0.00000058,-0.00000056
 ,0.00000036,-0.00000027,0.00000017,0.00000070,0.00000034,0.00000017,0.
 00000024,-0.00000010,0.00000021,0.00000027,0.00000390,-0.00000038,-0.0
 0000415,-0.00000585,0.00001264,-0.00000971,-0.00001939,-0.00001161,0.0
 0012520,0.00000276,-0.00001272,-0.00000535,-0.00000012,-0.00000065,0.0
 0000219,-0.00000117,0.00000006,-0.00000091,-0.00000156,-0.00000092,0.0
 0000547,0.00000142,0.00000082,-0.00000109,0.00022041,0.00005193,-0.000
 15580,0.00085872,0.00064822,0.00001612,0.00000918,-0.00002058,-0.00002
 409,-0.00003788,-0.00007799,0.00009624,0.00459545,0.00887749,-0.017751
 94,-0.00003233,0.00004708,0.00038889,-0.00012171,-0.00004813,0.0001229
 6,-0.02525799,-0.09907364,0.10035596,-0.00183506,-0.00131454,-0.003674
 68,0.00059021,0.00102298,0.00052394,-0.00009254,-0.00191651,0.00131746
 ,0.02925825,0.10425328,-0.00000813,0.00000400,-0.00000429,0.00000229,-
 0.00000582,0.00000584,-0.00000442,0.00000173,-0.00000154,0.00000105,-0
 .00001236,0.00000353,-0.00001548,0.00001425,0.00000234,0.00000661,-0.0
 0003026,0.00000422,0.00000231,-0.00000442,0.00000322,-0.00000288,0.000
 01010,-0.00000040,-0.00000280,-0.00000831,0.00000190,-0.00000244,0.000
 00142,-0.00000082,0.00000270,-0.00000301,0.00000165,-0.00000046,0.0000
 0018,-0.00000074,-0.00000224,0.00000036,-0.00000006,0.00000186,0.00001
 100,-0.00000334,-0.00000034,0.00000029,-0.00000132,-0.00000037,0.00000
 045,-0.00000228,0.00000117,-0.00000461,-0.00000408,0.00000059,-0.00000
 239,-0.00000162,-0.00000108,-0.00000044,-0.00000034,0.00000095,-0.0000
 0173,-0.00000033,0.00000224,0.00000162,0.00000385,-0.00006336,0.000028
 75,0.00000247,0.00001110,-0.00008338,0.00004610,-0.00002069,0.00001317
 ,-0.00000172,-0.00000449,0.00000056,-0.00000315,0.00001273,-0.00001374
 ,-0.00000034,0.00000440,-0.00001046,-0.00001065,-0.00000518,-0.0000040
 5,0.00000318,-0.00012988,-0.00026226,0.00026022,0.00148334,0.00095693,
 0.00059818,0.00002209,0.00000976,-0.00003090,0.00012424,0.00008511,0.0
 0034235,0.00559736,0.01120480,-0.02326049,-0.00111750,-0.00047847,0.00
 055981,-0.00009746,-0.00003473,0.00001682,0.05091755,0.09994778,-0.246
 00672,-0.00221599,-0.00379455,-0.00291362,0.00038853,-0.00016811,0.000
 99493,0.00046604,0.00028361,-0.00092600,-0.05492224,-0.10752433,0.2696
 8926,0.00001026,-0.00000423,-0.00000150,-0.00000541,0.00000717,-0.0000
 0082,0.00000440,-0.00000456,0.00000141,-0.00000302,0.00000676,-0.00000
 072,0.00000858,-0.00000481,0.00000251,-0.00001508,0.00000379,-0.000013
 39,-0.00000289,0.00000752,-0.00000202,0.00000055,-0.00000757,0.0000027
 7,0.00000396,0.00000933,-0.00000317,0.00000145,-0.00000470,0.00000137,
 -0.00000243,0.00000577,-0.00000171,0.00000093,-0.00000148,0.00000042,-
 0.00000126,-0.00000053,0.00000001,-0.00000499,-0.00001379,0.00000391,0
 .00000107,-0.00000138,0.00000025,0.00000144,-0.00000157,-0.00000021,-0
 .00000082,-0.00000056,-0.00000089,-0.00000084,0.00000034,-0.00000032,0
 .00000222,0.00000044,-0.00000009,-0.00000102,0.00000093,-0.00000029,-0
 .00001448,0.00000551,0.00000327,0.00003260,-0.00000507,0.00000017,-0.0
 0007982,0.00007367,0.00003347,0.00001167,0.00000103,0.00001801,0.00000
 304,-0.00000135,-0.00000098,-0.00000501,0.00001075,-0.00001942,0.00000
 076,-0.00000015,0.00000267,0.00001079,0.00000683,-0.00000164,0.0000975
 2,-0.00010013,-0.00008614,0.00141948,-0.00107526,0.00039514,-0.0001091
 1,0.00011218,0.00001628,0.00000832,-0.00000034,0.00002693,0.00427213,-
 0.01162556,0.00069873,-0.00005571,-0.00003549,-0.00000189,-0.00005737,
 0.00042246,-0.00011879,-0.09160722,0.09686322,-0.00060242,0.00017306,0
 .00054700,0.00056142,-0.00017166,-0.00180365,-0.00198831,-0.01192877,0
 .03061109,-0.00104075,0.00278238,-0.00813480,-0.00043176,0.09522031,-0
 .00000953,-0.00000587,-0.00000170,0.00000025,0.00000113,0.00000326,-0.
 00000449,0.00000140,-0.00000070,0.00000365,0.00000272,-0.00000154,-0.0
 0000790,-0.00000482,0.00000333,0.00001344,0.00000483,-0.00000328,0.000
 00088,-0.00000303,0.00000236,-0.00000131,-0.00000096,0.00000086,-0.000
 00039,-0.00000072,0.,-0.00000091,0.00000285,-0.00000109,0.00000074,-0.
 00000216,0.00000116,-0.00000093,0.00000066,-0.00000072,0.00000143,0.00
 000086,-0.00000013,0.00000361,0.00000164,-0.00000054,-0.00000172,0.000
 00063,-0.00000123,-0.00000436,0.00000112,-0.00000268,0.00000132,0.0000
 0450,-0.00000157,0.00000049,0.00000131,-0.00000083,-0.00000136,-0.0000
 0042,-0.00000014,-0.00000021,0.00000053,-0.00000038,-0.00001265,0.0000
 3167,0.00000269,-0.00002488,-0.00000378,-0.00000032,0.00001551,0.00001
 966,-0.00006028,-0.00005658,-0.00006199,0.00003198,-0.00001543,0.00000
 121,-0.00000592,0.00000448,0.00000827,-0.00002619,0.00000679,0.0000148
 4,-0.00000138,-0.00000502,-0.00000163,0.00000124,-0.00030058,0.0003371
 2,-0.00011265,0.00128399,0.00021645,0.00072457,0.00010630,0.00024126,0
 .00019640,0.00002401,-0.00002029,0.00001822,0.00693843,-0.01704503,-0.
 00014579,-0.00004736,-0.00002760,-0.00003469,-0.00097626,0.00038433,-0
 .00011224,0.09640610,-0.26673913,0.00321656,-0.00007114,0.00100533,-0.
 00014918,-0.00170192,-0.00047143,-0.00336961,-0.00143280,0.00417970,0.
 00013968,0.00573510,-0.01242935,-0.00012845,-0.10586881,0.29035417,-0.
 00000050,-0.00000139,0.00000073,0.00000131,0.00000085,-0.00000111,-0.0
 0000089,0.00000072,0.,0.00000122,-0.00000109,0.00000116,-0.00000278,0.
 00000214,-0.00000025,0.00000489,0.00000009,-0.00000642,0.00000073,-0.0
 0000145,-0.00000009,-0.00000055,0.00000213,-0.00000056,-0.00000065,-0.
 00000228,0.00000060,-0.00000049,0.00000099,-0.00000022,0.00000058,-0.0
 0000143,0.00000025,-0.00000019,0.00000039,0.00000007,0.00000017,-0.000
 00003,-0.00000004,0.00000060,0.00000349,-0.00000100,-0.00000029,0.0000
 0035,0.00000027,-0.00000090,0.00000030,0.00000062,0.00000061,0.0000004
 1,-0.00000094,0.00000029,-0.00000010,-0.00000006,-0.00000044,-0.000000
 03,0.00000008,0.00000034,-0.00000028,0.00000007,-0.00000266,0.00002087
 ,-0.00000877,0.00000698,0.00000461,-0.00000731,-0.00001429,0.00012026,
 0.00001207,-0.00004894,-0.00004665,0.00001063,-0.00000721,-0.00000028,
 0.00000123,-0.00000344,0.00000329,-0.00000289,0.00000579,0.00000574,0.
 00000019,-0.00000226,-0.00000153,0.00000032,0.00011765,0.00002605,-0.0
 0007237,0.00133547,0.00025942,0.00077262,0.00000807,0.00019899,0.00005
 263,0.00002115,-0.00002599,-0.00003213,0.01116519,-0.02553799,-0.00007
 247,-0.00016263,0.00010027,0.00001679,-0.00051708,0.00042447,0.0001949
 6,-0.00090031,0.00358159,-0.04841068,0.00071149,0.00051207,0.00099784,
 -0.00245318,-0.00332523,-0.00378107,0.00117177,-0.00235182,-0.00104815
 ,-0.01298313,0.02620711,0.00063486,0.00254851,-0.00017906,0.05074855\\
 -0.00002010,-0.00004109,0.00001732,0.00003124,0.00002102,-0.00001956,0
 .00000149,-0.00003574,0.00000832,-0.00003425,0.00000950,-0.00000053,0.
 00003468,0.00001425,-0.00000624,-0.00004864,0.00000148,0.00000749,0.00
 000525,0.00001161,-0.00001278,0.00001412,0.00000206,-0.00000156,-0.000
 02176,0.00001558,-0.00000354,0.00000664,-0.00002595,0.00000575,0.00001
 187,0.00000087,-0.00000485,-0.00000005,-0.00000101,-0.00000664,-0.0000
 1824,0.00001421,-0.00001117,0.00000403,0.00000289,0.00000679,0.0000022
 4,-0.00000290,-0.00000605,-0.00000068,-0.00000472,-0.00000494,-0.00000
 276,0.00000113,0.00001067,-0.00000082,0.00000284,0.00000755,0.00000340
 ,-0.00000257,-0.00000196,-0.00000167,0.00000315,0.00000474,0.00002470,
 0.00001714,-0.00002132,0.00003477,0.00002871,-0.00001256,0.00002164,-0
 .00009535,-0.00000644,-0.00003832,0.00004404,-0.00001323,-0.00000305,-
 0.00000511,-0.00000430,0.00000288,-0.00000980,0.00000055,-0.00000133,-
 0.00000029,0.00001120,0.00000623,-0.00001067,0.00000549,0.00000688,0.0
 0003092,0.00002638,-0.00000763,0.00000004,-0.00000723,-0.00000005,-0.0
 0000105,0.00000963,-0.00000791,-0.00000526,-0.00000284,0.00000991,-0.0
 0001395,0.00000812,0.00000354,0.00000992,0.00000439,0.00000240,-0.0000
 0519,-0.00000009,-0.00000168,0.00001311,0.00000254,-0.00000322,-0.0000
 0055,0.00000964,-0.00000282,0.00000283,0.00000284,-0.00000502,0.000005
 04,0.00000150,-0.00000533,0.00000495,-0.00000452,-0.00000257,0.0000039
 0,0.00000143\\\@


 ONLY A FOOL KNOWS EVERYTHING.

               -- THE CHEMIST ANALYST, SEPTEMBER 1946
 Job cpu time:       0 days  2 hours 17 minutes 21.2 seconds.
 File lengths (MBytes):  RWF=    811 Int=      0 D2E=      0 Chk=     16 Scr=      2
 Normal termination of Gaussian 09 at Wed Jun 28 11:58:51 2023.
